                  Welcome to Q-Chem
     A Quantum Leap Into The Future Of Chemistry


 Q-Chem 5.2 (devel), Q-Chem, Inc., Pleasanton, CA (2019)

 Yihan Shao,  Zhengting Gan,  E. Epifanovsky,  A. T. B. Gilbert,  M. Wormit,  
 J. Kussmann,  A. W. Lange,  A. Behn,  Jia Deng,  Xintian Feng,  D. Ghosh,  
 M. Goldey,  P. R. Horn,  L. D. Jacobson,  I. Kaliman,  T. Kus,  A. Landau,  
 Jie Liu,  E. I. Proynov,  R. M. Richard,  R. P. Steele,  E. J. Sundstrom,  
 H. L. Woodcock III,  P. M. Zimmerman,  D. Zuev,  B. Albrecht,  E. Alguire,  
 S. A. Baeppler,  D. Barton,  Z. Benda,  Y. A. Bernard,  E. J. Berquist,  
 K. B. Bravaya,  H. Burton,  D. Casanova,  Chun-Min Chang,  Yunqing Chen,  
 A. Chien,  K. D. Closser,  M. P. Coons,  S. Coriani,  S. Dasgupta,  
 A. L. Dempwolff,  M. Diedenhofen,  Hainam Do,  R. G. Edgar,  Po-Tung Fang,  
 S. Faraji,  S. Fatehi,  Qingguo Feng,  K. D. Fenk,  J. Fosso-Tande,  
 J. Gayvert,  Qinghui Ge,  A. Ghysels,  G. Gidofalvi,  J. Gomes,  
 J. Gonthier,  A. Gunina,  D. Hait,  M. W. D. Hanson-Heine,  
 P. H. P. Harbach,  A. W. Hauser,  M. F. Herbst,  J. E. Herr,  
 E. G. Hohenstein,  Z. C. Holden,  Kerwin Hui,  B. C. Huynh,  T.-C. Jagau,  
 Hyunjun Ji,  B. Kaduk,  K. Khistyaev,  Jaehoon Kim,  P. Klunzinger,  K. Koh,  
 D. Kosenkov,  L. Koulias,  T. Kowalczyk,  C. M. Krauter,  A. Kunitsa,  
 Ka Un Lao,  A. Laurent,  K. V. Lawler,  Joonho Lee,  D. Lefrancois,  
 S. Lehtola,  D. S. Levine,  Yi-Pei Li,  You-Sheng Lin,  Fenglai Liu,  
 E. Livshits,  A. Luenser,  P. Manohar,  E. Mansoor,  S. F. Manzer,  
 Shan-Ping Mao,  Yuezhi Mao,  N. Mardirossian,  A. V. Marenich,  
 T. Markovich,  L. A. Martinez-Martinez,  S. A. Maurer,  N. J. Mayhall,  
 S. C. McKenzie,  J.-M. Mewes,  P. Morgante,  A. F. Morrison,  
 J. W. Mullinax,  K. Nanda,  T. S. Nguyen-Beck,  R. Olivares-Amaya,  
 J. A. Parkhill,  Zheng Pei,  T. M. Perrine,  F. Plasser,  P. Pokhilko,  
 S. Prager,  A. Prociuk,  E. Ramos,  D. R. Rehn,  F. Rob,  M. Scheurer,  
 M. Schneider,  N. Sergueev,  S. M. Sharada,  S. Sharma,  D. W. Small,  
 T. Stauch,  T. Stein,  Yu-Chuan Su,  A. J. W. Thom,  A. Tkatchenko,  
 T. Tsuchimochi,  N. M. Tubman,  L. Vogt,  M. L. Vidal,  O. Vydrov,  
 M. A. Watson,  J. Wenzel,  M. de Wergifosse,  T. A. Wesolowski,  A. White,  
 J. Witte,  A. Yamada,  Jun Yang,  K. Yao,  S. Yeganeh,  S. R. Yost,  
 Zhi-Qiang You,  A. Zech,  Igor Ying Zhang,  Xing Zhang,  Yan Zhao,  
 Ying Zhu,  B. R. Brooks,  G. K. L. Chan,  C. J. Cramer,  M. S. Gordon,  
 W. J. Hehre,  A. Klamt,  M. W. Schmidt,  C. D. Sherrill,  D. G. Truhlar,  
 A. Aspuru-Guzik,  R. Baer,  A. T. Bell,  N. A. Besley,  Jeng-Da Chai,  
 A. E. DePrince, III,  R. A. DiStasio Jr.,  A. Dreuw,  B. D. Dunietz,  
 T. R. Furlani,  Chao-Ping Hsu,  Yousung Jung,  Jing Kong,  D. S. Lambrecht,  
 WanZhen Liang,  C. Ochsenfeld,  V. A. Rassolov,  L. V. Slipchenko,  
 J. E. Subotnik,  T. Van Voorhis,  J. M. Herbert,  A. I. Krylov,  
 P. M. W. Gill,  M. Head-Gordon

 Contributors to earlier versions of Q-Chem not listed above: 
 R. D. Adamson,  B. Austin,  J. Baker,  G. J. O. Beran,  K. Brandhorst,  
 S. T. Brown,  E. F. C. Byrd,  A. K. Chakraborty,  C.-L. Cheng,  
 Siu Hung Chien,  D. M. Chipman,  D. L. Crittenden,  H. Dachsel,  
 R. J. Doerksen,  A. D. Dutoi,  L. Fusti-Molnar,  W. A. Goddard III,  
 A. Golubeva-Zadorozhnaya,  S. R. Gwaltney,  G. Hawkins,  A. Heyden,  
 S. Hirata,  G. Kedziora,  F. J. Keil,  C. Kelley,  Jihan Kim,  R. A. King,  
 R. Z. Khaliullin,  P. P. Korambath,  W. Kurlancheek,  A. M. Lee,  M. S. Lee,  
 S. V. Levchenko,  Ching Yeh Lin,  D. Liotard,  R. C. Lochan,  I. Lotan,  
 P. E. Maslen,  N. Nair,  D. P. O'Neill,  D. Neuhauser,  E. Neuscamman,  
 C. M. Oana,  R. Olson,  B. Peters,  R. Peverati,  P. A. Pieniazek,  
 Y. M. Rhee,  J. Ritchie,  M. A. Rohrdanz,  E. Rosta,  N. J. Russ,  
 H. F. Schaefer III,  N. E. Schultz,  N. Shenvi,  A. C. Simmonett,  A. Sodt,  
 D. Stuck,  K. S. Thanthiriwatte,  V. Vanovschi,  Tao Wang,  A. Warshel,  
 C. F. Williams,  Q. Wu,  X. Xu,  W. Zhang

 Please cite Q-Chem as follows:
 Y. Shao et al., Mol. Phys. 113, 184-215 (2015)
 DOI: 10.1080/00268976.2014.952696

 Q-Chem 5.2.0 for Intel X86 EM64T Linux

 Parts of Q-Chem use Armadillo 8.300.2 (Tropical Shenanigans).
 http://arma.sourceforge.net/

 Q-Chem begins on Thu Dec  8 16:23:58 2022  

Host: 
0

     Scratch files written to /lscratch/ccprak16/fe-s2-cn-1_471369.Meister/qchem1404//
NAlpha2: 134
NElect   134
Mult     1

Checking the input file for inconsistencies... 	...done.

--------------------------------------------------------------
User input:
--------------------------------------------------------------
$molecule
-1 1
  Fe   -1.5930713    2.4341447    0.1780128
  S    0.3546681    3.6131072    0.0191196
  S   -0.1936419    0.7666641    0.8321077
  S   -3.0012060    4.0979065   -0.4784166
  S   -3.5386599    1.2478095    0.3317421
  C    0.9677379    2.1068762    0.3607794
  C    2.3979136    1.7838173    0.0923945
  C   -4.1639185    2.7183352   -0.1218754
  C   -5.6422470    2.9365918   -0.1424345
  H    2.9493652    2.6797735   -0.2616364
  H    2.4466032    0.9979668   -0.6900992
  H    2.8685028    1.4069290    1.0229635
  H   -5.8739657    3.9845537   -0.4241038
  H   -6.0570366    2.7362755    0.8673928
  H   -6.1188696    2.2529800   -0.8760391
  C   -1.7860211    3.0177721    2.1130065
  N   -1.8824257    3.3553657    3.2154341
$end

$rem
jobtype opt
method hf
basis 6-31+g*
scf_convergence 5
max_scf_cycles 2000
scf_algorithm diis_gdm
threads 8
mem_total 100000
mem_static 10000
!QSYS wt=24h
$end
--------------------------------------------------------------
 ----------------------------------------------------------------
             Standard Nuclear Orientation (Angstroms)
    I     Atom           X                Y                Z
 ----------------------------------------------------------------
    1      Fe      0.0241486563    -0.0043414208     0.2210505152
    2      S       1.7833443226    -1.4523058177     0.0886945223
    3      S       1.6716009641     1.5562393450     0.0898144600
    4      S      -1.6315622791    -1.5607559415     0.3553686287
    5      S      -1.7322555141     1.4489120767     0.3604691900
    6      C       2.6120866612    -0.0158967202     0.1946797327
    7      C       4.0531581025     0.0099629314     0.5747381751
    8      C      -2.5752332981     0.0176796107     0.3716527317
    9      C      -4.0678677936     0.0196421744     0.2971397444
   10      H       4.4569740131    -1.0189292601     0.6771482633
   11      H       4.1577052518     0.5366686906     1.5462725352
   12      H       4.6266987313     0.5538351444    -0.2028940082
   13      H      -4.4544930194    -1.0200884149     0.2700006460
   14      H      -4.3887152455     0.5460696721    -0.6258224490
   15      H      -4.4935253813     0.5389072850     1.1813621530
   16      C      -0.1245573397    -0.0032406406    -1.8037794780
   17      N      -0.1965810432    -0.0094149871    -2.9585021124
 ----------------------------------------------------------------
 Molecular Point Group                 C1    NOp =  1
 Largest Abelian Subgroup              C1    NOp =  1
 Nuclear Repulsion Energy =        1385.77840757 hartrees
 There are       67 alpha and       67 beta electrons
 Requested basis set is 6-31+G(d)
 There are 74 shells and 254 basis functions

 Total QAlloc Memory Limit 100000 MB
 Mega-Array Size      9776 MB
 MEM_STATIC part     10000 MB
 A cutoff of  1.0D-09 yielded   2114 shell pairs
 There are     27808 function pairs (     28537 Cartesian)
 Smallest overlap matrix eigenvalue = 1.27E-05

 Q-Chem warning in module stvman/mkSTV.C, line 318:

 Overlap eigenvalue is smaller than square root of threshold
 Use THRESH >= 12 to get rid of this warning


 Scale SEOQF with 1.000000e-01/1.000000e-01/1.000000e-01

 Standard Electronic Orientation quadrupole field applied
 Nucleus-field energy     =     0.0000000213 hartrees
 Guess from superposition of atomic densities
 Warning:  Energy on first SCF cycle will be non-variational
 SAD guess density has 132.991007 electrons

 -----------------------------------------------------------------------
  General SCF calculation program by
  Eric Jon Sundstrom, Paul Horn, Yuezhi Mao, Dmitri Zuev, Alec White,
  David Stuck, Shaama M.S., Shane Yost, Joonho Lee, David Small,
  Daniel Levine, Susi Lehtola, Hugh Burton, Evgeny Epifanovsky
 -----------------------------------------------------------------------
 Hartree-Fock
 using 8 threads for integral computing
 -------------------------------------------------------
 OpenMP Integral computing Module                
 Release: version 2.0, May 2017, Q-Chem Inc. Pleasanton 
 -------------------------------------------------------
 A restricted SCF calculation will be
 performed using DIIS, GDM
 SCF converges when RMS gradient is below 1.0e-05
 ---------------------------------------
  Cycle       Energy         DIIS error
 ---------------------------------------
    1   -3101.7241929491      9.48e-02  
    2   -3098.6824414854      1.05e-02  
    3   -3085.8858834582      3.28e-02  
    4   -3098.9749237134      9.66e-03  Done DIIS. Switching to GDM
 ---------------------------------------
  Cycle       Energy        RMS Gradient
 ---------------------------------------
    1   -3098.9749237134      3.89e-01   Descent step
    2   -3099.3633718914      9.36e-02   Descent step
    3   -3099.5038467925      8.56e-02   Normal BFGS step
    4   -3099.5614008350      3.23e-02   Normal BFGS step
    5   -3099.5695375878      1.07e-02   Normal BFGS step
    6   -3099.5720652209      2.13e-03   Normal BFGS step
    7   -3099.5723187331      1.26e-03   Normal BFGS step
    8   -3099.5724009309      1.02e-03   Normal BFGS step
    9   -3099.5724792575      8.65e-04   Normal BFGS step
   10   -3099.5725526001      6.10e-04   Normal BFGS step
   11   -3099.5725826600      4.39e-04   Normal BFGS step
   12   -3099.5726006782      4.46e-04   Normal BFGS step
   13   -3099.5726156424      3.41e-04   Normal BFGS step
   14   -3099.5726336247      3.71e-04   Normal BFGS step
   15   -3099.5726457021      2.62e-04   Normal BFGS step
   16   -3099.5726499174      1.34e-04   Normal BFGS step
   17   -3099.5726508341      8.06e-05   Normal BFGS step
   18   -3099.5726512001      6.64e-05   Normal BFGS step
   19   -3099.5726515015      4.92e-05   Normal BFGS step
   20   -3099.5726517156      7.04e-05   Normal BFGS step
   21   -3099.5726519393      5.87e-05   Normal BFGS step
   22   -3099.5726520970      2.90e-05   Normal BFGS step
   23   -3099.5726522141      1.33e-05   Normal BFGS step
   24   -3099.5726523819      9.94e-06  Convergence criterion met
 ---------------------------------------
 SCF time:   CPU 234.25s  wall 30.00s 
 SCF   energy in the final basis set =    -3099.5726523819
 Total energy in the final basis set =    -3099.5726523819
 
 --------------------------------------------------------------
 
                    Orbital Energies (a.u.)
 --------------------------------------------------------------
 
 Alpha MOs
 -- Occupied --
******** -91.8067 -91.8046 -91.7900 -91.7857 -31.7543 -27.2373 -27.2357
-27.2352 -15.3520 -11.2437 -11.2430 -11.1509 -11.1490 -11.0275  -8.8211
 -8.8191  -8.8007  -8.7968  -6.5038  -6.5018  -6.5017  -6.5009  -6.4996
 -6.4991  -6.4834  -6.4810  -6.4808  -6.4796  -6.4772  -6.4767  -3.9637
 -2.5472  -2.5439  -2.5423  -1.0023  -0.9975  -0.9921  -0.8583  -0.8525
 -0.7936  -0.7911  -0.6025  -0.5844  -0.4966  -0.4942  -0.4915  -0.4901
 -0.4695  -0.4442  -0.4332  -0.3917  -0.3809  -0.3792  -0.3596  -0.3406
 -0.3310  -0.3222  -0.2818  -0.2614  -0.2598  -0.2566  -0.2479  -0.2375
 -0.2260  -0.2000  -0.1957
 -- Virtual --
  0.1474   0.1537   0.1589   0.1712   0.1784   0.1858   0.1884   0.1982
  0.1995   0.2036   0.2060   0.2108   0.2222   0.2318   0.2360   0.2374
  0.2493   0.2552   0.2634   0.2714   0.2764   0.2859   0.2944   0.3093
  0.3101   0.3135   0.3299   0.3317   0.3395   0.3429   0.3539   0.3564
  0.3627   0.3646   0.3719   0.3784   0.3834   0.3885   0.3936   0.4021
  0.4084   0.4216   0.4232   0.4356   0.4411   0.4464   0.4535   0.4558
  0.4614   0.4712   0.4763   0.4851   0.4925   0.5072   0.5147   0.5270
  0.5294   0.5363   0.5744   0.5773   0.5837   0.5984   0.6353   0.7719
  0.7942   0.8023   0.8051   0.8294   0.8400   0.8470   0.8538   0.8655
  0.8721   0.8762   0.8997   0.9086   0.9215   0.9367   0.9832   0.9925
  0.9956   1.0093   1.0142   1.0190   1.0418   1.0454   1.0526   1.0663
  1.0764   1.0837   1.0922   1.1031   1.1159   1.1178   1.1312   1.1375
  1.1424   1.1629   1.1786   1.1965   1.2559   1.2620   1.2684   1.2808
  1.2909   1.3044   1.3119   1.3177   1.3411   1.3645   1.3742   1.3779
  1.3865   1.4032   1.4230   1.4326   1.4569   1.4726   1.4865   1.4943
  1.5012   1.5150   1.5304   1.5382   1.6003   1.6030   1.6210   1.7000
  1.7721   1.7801   1.7997   1.8590   1.8706   1.9566   1.9605   1.9680
  2.0166   2.0431   2.0561   2.1501   2.1767   2.1933   2.2031   2.2252
  2.2516   2.2674   2.3612   2.3706   2.3931   2.4824   2.4921   2.5058
  2.5126   2.5264   2.5289   2.5808   2.6027   2.6282   2.6907   2.7094
  2.7208   2.7233   2.7240   2.7350   2.7433   2.8085   2.8259   2.8553
  2.8640   2.8946   3.0940   3.1109   3.2307   3.2353   3.4512   3.7968
  4.4621   4.4990   4.5416   4.5427   4.7193   4.7375   4.7916   4.9032
  4.9082   4.9837  21.8084
 --------------------------------------------------------------
 
          Ground-State Mulliken Net Atomic Charges

     Atom                 Charge (a.u.)
  ----------------------------------------
      1 Fe                    1.274852
      2 S                    -0.358520
      3 S                    -0.488561
      4 S                    -0.479786
      5 S                    -0.311892
      6 C                     0.248864
      7 C                    -0.703825
      8 C                     0.369107
      9 C                    -0.762113
     10 H                     0.207560
     11 H                     0.220069
     12 H                     0.216147
     13 H                     0.215428
     14 H                     0.226252
     15 H                     0.208077
     16 C                    -0.456106
     17 N                    -0.625554
  ----------------------------------------
  Sum of atomic charges =    -1.000000

 -----------------------------------------------------------------
                    Cartesian Multipole Moments
 -----------------------------------------------------------------
    Charge (ESU x 10^10)
                -4.8032
    Dipole Moment (Debye)
         X       0.4068      Y       0.0245      Z       7.4602
       Tot       7.4713
    Quadrupole Moments (Debye-Ang)
        XX    -105.5910     XY      -3.8500     YY    -125.1539
        XZ       0.3310     YZ       0.3027     ZZ    -135.4926
    Octopole Moments (Debye-Ang^2)
       XXX      -3.2486    XXY       1.8562    XYY      -0.6436
       YYY      -1.9361    XXZ       1.3098    XYZ      -1.2359
       YYZ      -3.7941    XZZ       7.9546    YZZ       1.8908
       ZZZ      97.2737
    Hexadecapole Moments (Debye-Ang^3)
      XXXX   -2924.0088   XXXY     -12.1652   XXYY    -776.5850
      XYYY     -22.8249   YYYY    -966.0357   XXXZ       3.7409
      XXYZ       0.6259   XYYZ       4.6653   YYYZ       0.9567
      XXZZ    -633.6518   XYZZ      -8.1997   YYZZ    -285.5708
      XZZZ     -11.0533   YZZZ       3.1127   ZZZZ    -958.6154
 -----------------------------------------------------------------
 Calculating analytic gradient of the SCF energy
 Gradient of SCF Energy
            1           2           3           4           5           6
    1   0.0013611  -0.0295349  -0.0613940   0.0611538   0.0274565   0.0200936
    2  -0.0003330   0.0070011   0.0328558  -0.0385292  -0.0065108  -0.0382819
    3   0.0255904  -0.0034666  -0.0106121  -0.0155259  -0.0121716  -0.0111981
            7           8           9          10          11          12
    1  -0.0219892  -0.0171692   0.0206076   0.0060015   0.0002921   0.0061277
    2   0.0015296   0.0413097   0.0125332  -0.0172160   0.0059991   0.0050599
    3   0.0017659   0.0034546   0.0012163   0.0024130   0.0169117  -0.0135822
           13          14          15          16          17
    1  -0.0047100  -0.0043785  -0.0065573   0.0037013  -0.0010622
    2  -0.0178945   0.0062852   0.0059072   0.0005191  -0.0002345
    3  -0.0005199  -0.0153645   0.0147279   0.0348675  -0.0185064
 Max gradient component =       6.139E-02
 RMS gradient           =       2.051E-02
 Gradient time:  CPU 42.27 s  wall 5.30 s
 Geometry Optimization Parameters
   NAtoms,    NIC,     NZ,  NCons,   NDum,   NFix, NCnnct, MaxDiis
       17     125       0       0       0       0       0       0


** GEOMETRY OPTIMIZATION IN DELOCALIZED INTERNAL COORDINATES **
   Searching for a Minimum

   Optimization Cycle:   1

                       Coordinates (Angstroms)
     ATOM                X               Y               Z
      1  Fe        0.0241486563   -0.0043414208    0.2210505152
      2  S         1.7833443226   -1.4523058177    0.0886945223
      3  S         1.6716009641    1.5562393450    0.0898144600
      4  S        -1.6315622791   -1.5607559415    0.3553686287
      5  S        -1.7322555141    1.4489120767    0.3604691900
      6  C         2.6120866612   -0.0158967202    0.1946797327
      7  C         4.0531581025    0.0099629314    0.5747381751
      8  C        -2.5752332981    0.0176796107    0.3716527317
      9  C        -4.0678677936    0.0196421744    0.2971397444
     10  H         4.4569740131   -1.0189292601    0.6771482633
     11  H         4.1577052518    0.5366686906    1.5462725352
     12  H         4.6266987313    0.5538351444   -0.2028940082
     13  H        -4.4544930194   -1.0200884149    0.2700006460
     14  H        -4.3887152455    0.5460696721   -0.6258224490
     15  H        -4.4935253813    0.5389072850    1.1813621530
     16  C        -0.1245573397   -0.0032406406   -1.8037794780
     17  N        -0.1965810432   -0.0094149871   -2.9585021124
   Point Group: c1    Number of degrees of freedom:    45


   Energy is  -3099.572652382


 Attempting to generate delocalized internal coordinates
 Initial Hessian constructed with Jon Baker's OPTIMIZE code

 45 Hessian modes will be used to form the next step
  Hessian Eigenvalues:
     0.005345    0.006622    0.009907    0.010193    0.010426    0.010956
     0.075219    0.075282    0.076233    0.076856    0.077578    0.110231
     0.124453    0.139822    0.152574    0.159616    0.160000    0.160000
     0.160000    0.160000    0.160000    0.160000    0.160118    0.163622
     0.164750    0.200000    0.200000    0.216660    0.231268    0.235791
     0.242475    0.247864    0.248818    0.249518    0.325729    0.325939
     0.325965    0.326082    0.326403    0.327264    0.329618    0.333871
     0.389475    0.394306    1.297885

 Minimum search - taking simple RFO step
 Searching for Lamda that Minimizes Along All modes
 Value Taken    Lamda =  -0.06987845
 Calculated Step too Large.  Step scaled by  0.573119
 Step Taken.  Stepsize is  0.300000

                             Maximum     Tolerance    Cnvgd?
         Gradient           0.064279      0.000300      NO
         Displacement       0.125117      0.001200      NO
         Energy change     *********      0.000001      NO


 New Cartesian Coordinates Obtained by Inverse Iteration

 Displacement from previous Coordinates is:  0.619837
 ----------------------------------------------------------------
             Standard Nuclear Orientation (Angstroms)
    I     Atom           X                Y                Z
 ----------------------------------------------------------------
    1      Fe      0.0172077222    -0.0035816354     0.2112498189
    2      S       1.8382611988    -1.4509173312     0.1168119342
    3      S       1.7713390225     1.5159932034     0.1295125226
    4      S      -1.7393405597    -1.5174167920     0.3715157083
    5      S      -1.7983799557     1.4459747810     0.3677200720
    6      C       2.6813524389    -0.0202430456     0.2301574253
    7      C       4.1374352071     0.0132434377     0.5724133329
    8      C      -2.6533296925     0.0181542780     0.3716888087
    9      C      -4.1495316437     0.0089276927     0.2938839991
   10      H       4.5479091606    -0.9990542031     0.6613026476
   11      H       4.2646873929     0.5369002964     1.5273659990
   12      H       4.6865725737     0.5603239553    -0.2041439717
   13      H      -4.5342900294    -1.0165387527     0.2705005471
   14      H      -4.4677064677     0.5287979760    -0.6180664665
   15      H      -4.5722436977     0.5285793681     1.1628874867
   16      C      -0.1217502174    -0.0005638489    -1.8382041245
   17      N      -0.1872666642    -0.0056356526    -2.9892024897
 ----------------------------------------------------------------
 Molecular Point Group                 C1    NOp =  1
 Largest Abelian Subgroup              C1    NOp =  1
 Nuclear Repulsion Energy =        1366.75594861 hartrees
 There are       67 alpha and       67 beta electrons
 Applying Cartesian multipole field
    Component          Value
    ---------          -----
     (2,0,0)        1.00000E-11
     (0,2,0)        2.00000E-11
     (0,0,2)       -3.00000E-11
 Nucleus-field energy     =     0.0000000220 hartrees
 Requested basis set is 6-31+G(d)
 There are 74 shells and 254 basis functions
 A cutoff of  1.0D-09 yielded   2091 shell pairs
 There are     27518 function pairs (     28235 Cartesian)
 Smallest overlap matrix eigenvalue = 1.27E-05

 Q-Chem warning in module stvman/mkSTV.C, line 318:

 Overlap eigenvalue is smaller than square root of threshold
 Use THRESH >= 12 to get rid of this warning

 Guess MOs from SCF MO coefficient file

 -----------------------------------------------------------------------
  General SCF calculation program by
  Eric Jon Sundstrom, Paul Horn, Yuezhi Mao, Dmitri Zuev, Alec White,
  David Stuck, Shaama M.S., Shane Yost, Joonho Lee, David Small,
  Daniel Levine, Susi Lehtola, Hugh Burton, Evgeny Epifanovsky
 -----------------------------------------------------------------------
 Hartree-Fock
 using 8 threads for integral computing
 -------------------------------------------------------
 OpenMP Integral computing Module                
 Release: version 2.0, May 2017, Q-Chem Inc. Pleasanton 
 -------------------------------------------------------
 A restricted SCF calculation will be
 performed using DIIS, GDM
 SCF converges when RMS gradient is below 1.0e-05
 ---------------------------------------
  Cycle       Energy         DIIS error
 ---------------------------------------
    1   -3099.5993196286      8.19e-04  
    2   -3099.6058622852      1.64e-04  Done DIIS. Switching to GDM
 ---------------------------------------
  Cycle       Energy        RMS Gradient
 ---------------------------------------
    1   -3099.6058622852      3.46e-03   Normal BFGS step
    2   -3099.6063735751      2.20e-03   Normal BFGS step
    3   -3099.6064973086      7.23e-04   Normal BFGS step
    4   -3099.6065255049      5.43e-04   Normal BFGS step
    5   -3099.6065401737      3.94e-04   Normal BFGS step
    6   -3099.6065473290      2.82e-04   Normal BFGS step
    7   -3099.6065545026      3.92e-04   Normal BFGS step
    8   -3099.6065608059      2.88e-04   Normal BFGS step
    9   -3099.6065648715      2.19e-04   Normal BFGS step
   10   -3099.6065667711      2.09e-04   Normal BFGS step
   11   -3099.6065680387      1.49e-04   Normal BFGS step
   12   -3099.6065690409      1.06e-04   Normal BFGS step
   13   -3099.6065695966      4.87e-05   Normal BFGS step
   14   -3099.6065697241      2.97e-05   Normal BFGS step
   15   -3099.6065697702      2.84e-05   Normal BFGS step
   16   -3099.6065697941      2.59e-05   Normal BFGS step
   17   -3099.6065699386      1.80e-05   Normal BFGS step
   18   -3099.6065699519      1.82e-05   Normal BFGS step
   19   -3099.6065700160      1.09e-05   Normal BFGS step
   20   -3099.6065701694      4.40e-06  Convergence criterion met
 ---------------------------------------
 SCF time:   CPU 171.36s  wall 21.00s 
 SCF   energy in the final basis set =    -3099.6065701694
 Total energy in the final basis set =    -3099.6065701694
 
 --------------------------------------------------------------
 
                    Orbital Energies (a.u.)
 --------------------------------------------------------------
 
 Alpha MOs
 -- Occupied --
******** -91.8059 -91.8029 -91.7928 -91.7888 -31.7638 -27.2465 -27.2453
-27.2451 -15.3537 -11.2420 -11.2407 -11.1478 -11.1456 -11.0288  -8.8198
 -8.8169  -8.8040  -8.8002  -6.5026  -6.5005  -6.4998  -6.4997  -6.4974
 -6.4970  -6.4868  -6.4843  -6.4842  -6.4830  -6.4807  -6.4802  -3.9721
 -2.5549  -2.5515  -2.5507  -1.0048  -1.0011  -0.9962  -0.8614  -0.8564
 -0.7995  -0.7975  -0.6012  -0.5862  -0.4994  -0.4968  -0.4949  -0.4941
 -0.4673  -0.4461  -0.4314  -0.3957  -0.3852  -0.3824  -0.3664  -0.3475
 -0.3356  -0.3258  -0.2912  -0.2647  -0.2621  -0.2609  -0.2442  -0.2361
 -0.2335  -0.2018  -0.1988
 -- Virtual --
  0.1475   0.1532   0.1586   0.1717   0.1792   0.1856   0.1874   0.1990
  0.2004   0.2034   0.2051   0.2106   0.2222   0.2307   0.2365   0.2374
  0.2486   0.2537   0.2624   0.2714   0.2770   0.2839   0.2973   0.3076
  0.3095   0.3116   0.3291   0.3308   0.3400   0.3425   0.3525   0.3557
  0.3627   0.3650   0.3726   0.3776   0.3817   0.3889   0.3927   0.3985
  0.4084   0.4218   0.4235   0.4374   0.4405   0.4444   0.4516   0.4531
  0.4615   0.4700   0.4795   0.4865   0.4978   0.5036   0.5110   0.5268
  0.5297   0.5377   0.5734   0.5749   0.5846   0.5960   0.6282   0.7729
  0.7876   0.7902   0.7983   0.8269   0.8322   0.8425   0.8587   0.8614
  0.8654   0.8738   0.8969   0.9003   0.9215   0.9255   0.9888   0.9921
  0.9979   1.0058   1.0099   1.0241   1.0414   1.0435   1.0535   1.0652
  1.0737   1.0800   1.0895   1.0957   1.1128   1.1193   1.1277   1.1310
  1.1402   1.1574   1.1802   1.1984   1.2549   1.2636   1.2655   1.2669
  1.2805   1.2955   1.3079   1.3113   1.3299   1.3598   1.3804   1.3851
  1.3930   1.4140   1.4222   1.4466   1.4518   1.4697   1.4864   1.4936
  1.5076   1.5160   1.5267   1.5341   1.5970   1.6020   1.6108   1.6990
  1.7148   1.7802   1.7946   1.8646   1.8737   1.9321   1.9355   1.9601
  1.9942   2.0370   2.0498   2.1649   2.1700   2.1799   2.1937   2.1954
  2.2515   2.2623   2.3307   2.3691   2.3859   2.4391   2.5002   2.5124
  2.5154   2.5250   2.5290   2.5777   2.6017   2.6501   2.6844   2.7064
  2.7124   2.7141   2.7290   2.7397   2.7456   2.7966   2.8197   2.8375
  2.8593   2.8930   3.0884   3.1064   3.2233   3.2282   3.4241   3.7830
  4.4694   4.4870   4.5339   4.5449   4.7276   4.7409   4.7786   4.9094
  4.9111   4.9701  21.7581
 --------------------------------------------------------------
 
          Ground-State Mulliken Net Atomic Charges

     Atom                 Charge (a.u.)
  ----------------------------------------
      1 Fe                    1.318853
      2 S                    -0.395828
      3 S                    -0.491329
      4 S                    -0.480744
      5 S                    -0.360888
      6 C                     0.278651
      7 C                    -0.735206
      8 C                     0.447405
      9 C                    -0.814984
     10 H                     0.209302
     11 H                     0.220819
     12 H                     0.218519
     13 H                     0.216976
     14 H                     0.227068
     15 H                     0.209256
     16 C                    -0.436310
     17 N                    -0.631563
  ----------------------------------------
  Sum of atomic charges =    -1.000000

 -----------------------------------------------------------------
                    Cartesian Multipole Moments
 -----------------------------------------------------------------
    Charge (ESU x 10^10)
                -4.8032
    Dipole Moment (Debye)
         X       0.4075      Y      -0.0223      Z       7.4758
       Tot       7.4870
    Quadrupole Moments (Debye-Ang)
        XX    -105.8167     XY      -2.8022     YY    -125.1388
        XZ       0.4093     YZ       0.1740     ZZ    -135.8323
    Octopole Moments (Debye-Ang^2)
       XXX      -1.8169    XXY       1.6822    XYY      -0.1362
       YYY      -1.9574    XXZ       0.4042    XYZ      -1.0358
       YYZ      -4.5311    XZZ       7.9822    YZZ       1.5311
       ZZZ      96.4524
    Hexadecapole Moments (Debye-Ang^3)
      XXXX   -3064.1554   XXXY      -9.6514   XXYY    -807.5305
      XYYY     -17.0864   YYYY    -944.0685   XXXZ       4.1173
      XXYZ       0.2727   XYYZ       3.2787   YYYZ      -0.1719
      XXZZ    -665.2707   XYZZ      -6.7012   YYZZ    -283.3812
      XZZZ     -13.2875   YZZZ       2.1410   ZZZZ    -979.1167
 -----------------------------------------------------------------
 Calculating analytic gradient of the SCF energy
 Gradient of SCF Energy
            1           2           3           4           5           6
    1   0.0014126  -0.0221303  -0.0442887   0.0444453   0.0203367   0.0166576
    2  -0.0004503   0.0081189   0.0259263  -0.0292335  -0.0091247  -0.0337232
    3   0.0272342  -0.0051258  -0.0096874  -0.0118107  -0.0100945  -0.0101301
            7           8           9          10          11          12
    1  -0.0128462  -0.0150557   0.0112202   0.0032614   0.0005964   0.0032971
    2   0.0026240   0.0368894   0.0068068  -0.0085319   0.0026476   0.0021913
    3   0.0047035   0.0025825   0.0006002   0.0014087   0.0086108  -0.0072480
           13          14          15          16          17
    1  -0.0030984  -0.0021699  -0.0034141   0.0021491  -0.0003730
    2  -0.0090791   0.0024444   0.0021942   0.0004691  -0.0001694
    3  -0.0003187  -0.0079185   0.0075803   0.0179320  -0.0083184
 Max gradient component =       4.445E-02
 RMS gradient           =       1.532E-02
 Gradient time:  CPU 40.99 s  wall 5.13 s
 Geometry Optimization Parameters
   NAtoms,    NIC,     NZ,  NCons,   NDum,   NFix, NCnnct, MaxDiis
       17     125       0       0       0       0       0       0

 Cartesian Hessian Update
 Hessian updated using BFGS update


** GEOMETRY OPTIMIZATION IN DELOCALIZED INTERNAL COORDINATES **
   Searching for a Minimum

   Optimization Cycle:   2

                       Coordinates (Angstroms)
     ATOM                X               Y               Z
      1  Fe        0.0172077222   -0.0035816354    0.2112498189
      2  S         1.8382611988   -1.4509173312    0.1168119342
      3  S         1.7713390225    1.5159932034    0.1295125226
      4  S        -1.7393405597   -1.5174167920    0.3715157083
      5  S        -1.7983799557    1.4459747810    0.3677200720
      6  C         2.6813524389   -0.0202430456    0.2301574253
      7  C         4.1374352071    0.0132434377    0.5724133329
      8  C        -2.6533296925    0.0181542780    0.3716888087
      9  C        -4.1495316437    0.0089276927    0.2938839991
     10  H         4.5479091606   -0.9990542031    0.6613026476
     11  H         4.2646873929    0.5369002964    1.5273659990
     12  H         4.6865725737    0.5603239553   -0.2041439717
     13  H        -4.5342900294   -1.0165387527    0.2705005471
     14  H        -4.4677064677    0.5287979760   -0.6180664665
     15  H        -4.5722436977    0.5285793681    1.1628874867
     16  C        -0.1217502174   -0.0005638489   -1.8382041245
     17  N        -0.1872666642   -0.0056356526   -2.9892024897
   Point Group: c1    Number of degrees of freedom:    45


   Energy is  -3099.606570169

 Hessian updated using BFGS update

 41 Hessian modes will be used to form the next step
  Hessian Eigenvalues:
     0.005349    0.006603    0.009907    0.010193    0.010427    0.010983
     0.075222    0.075285    0.076242    0.076934    0.077612    0.106268
     0.110246    0.140805    0.144201    0.152612    0.159739    0.160001
     0.160437    0.161609    0.163992    0.199994    0.200000    0.201913
     0.216662    0.231615    0.242472    0.247751    0.249147    0.263480
     0.325783    0.325951    0.326040    0.326306    0.327120    0.329566
     0.333540    0.342550    0.389476    0.395742    1.300449

 Minimum search - taking simple RFO step
 Searching for Lamda that Minimizes Along All modes
 Value Taken    Lamda =  -0.05073514
 Calculated Step too Large.  Step scaled by  0.536907
 Step Taken.  Stepsize is  0.300000

                             Maximum     Tolerance    Cnvgd?
         Gradient           0.043350      0.000300      NO
         Displacement       0.117277      0.001200      NO
         Energy change     -0.033918      0.000001      NO


 New Cartesian Coordinates Obtained by Inverse Iteration

 Displacement from previous Coordinates is:  0.521912
 ----------------------------------------------------------------
             Standard Nuclear Orientation (Angstroms)
    I     Atom           X                Y                Z
 ----------------------------------------------------------------
    1      Fe      0.0084725302    -0.0018095232     0.1933823489
    2      S       1.8888149812    -1.4480874028     0.1601741471
    3      S       1.8556447242     1.4799171247     0.1799166494
    4      S      -1.8354829181    -1.4785272361     0.3797325379
    5      S      -1.8623844088     1.4456553023     0.3710157259
    6      C       2.7332489143    -0.0130744716     0.2716071092
    7      C       4.2027925750     0.0165858553     0.5671884902
    8      C      -2.7143033629     0.0087924806     0.3696173194
    9      C      -4.2125898131    -0.0000462199     0.2922982078
   10      H       4.6127063241    -0.9895779045     0.6376360331
   11      H       4.3587234081     0.5367242972     1.5118844986
   12      H       4.7244941058     0.5664572159    -0.2171796499
   13      H      -4.5949258953    -1.0180250550     0.2721101358
   14      H      -4.5288112112     0.5192648259    -0.6130036249
   15      H      -4.6293137377     0.5236139915     1.1537685760
   16      C      -0.1148443452     0.0002527146    -1.8716347935
   17      N      -0.1713160819    -0.0051722677    -3.0211204608
 ----------------------------------------------------------------
 Molecular Point Group                 C1    NOp =  1
 Largest Abelian Subgroup              C1    NOp =  1
 Nuclear Repulsion Energy =        1351.34532146 hartrees
 There are       67 alpha and       67 beta electrons
 Applying Cartesian multipole field
    Component          Value
    ---------          -----
     (2,0,0)        1.00000E-11
     (0,2,0)        2.00000E-11
     (0,0,2)       -3.00000E-11
 Nucleus-field energy     =     0.0000000225 hartrees
 Requested basis set is 6-31+G(d)
 There are 74 shells and 254 basis functions
 A cutoff of  1.0D-09 yielded   2068 shell pairs
 There are     27050 function pairs (     27755 Cartesian)
 Smallest overlap matrix eigenvalue = 1.19E-05

 Q-Chem warning in module stvman/mkSTV.C, line 318:

 Overlap eigenvalue is smaller than square root of threshold
 Use THRESH >= 12 to get rid of this warning

 Guess MOs from SCF MO coefficient file

 -----------------------------------------------------------------------
  General SCF calculation program by
  Eric Jon Sundstrom, Paul Horn, Yuezhi Mao, Dmitri Zuev, Alec White,
  David Stuck, Shaama M.S., Shane Yost, Joonho Lee, David Small,
  Daniel Levine, Susi Lehtola, Hugh Burton, Evgeny Epifanovsky
 -----------------------------------------------------------------------
 Hartree-Fock
 using 8 threads for integral computing
 -------------------------------------------------------
 OpenMP Integral computing Module                
 Release: version 2.0, May 2017, Q-Chem Inc. Pleasanton 
 -------------------------------------------------------
 A restricted SCF calculation will be
 performed using DIIS, GDM
 SCF converges when RMS gradient is below 1.0e-05
 ---------------------------------------
  Cycle       Energy         DIIS error
 ---------------------------------------
    1   -3099.6224637699      7.43e-04  
    2   -3099.6280906667      1.71e-04  Done DIIS. Switching to GDM
 ---------------------------------------
  Cycle       Energy        RMS Gradient
 ---------------------------------------
    1   -3099.6280906667      4.14e-03   Normal BFGS step
    2   -3099.6285776458      2.58e-03   Normal BFGS step
    3   -3099.6287257645      9.45e-04   Normal BFGS step
    4   -3099.6287510518      4.55e-04   Normal BFGS step
    5   -3099.6287647133      2.52e-04   Normal BFGS step
    6   -3099.6287693552      2.62e-04   Normal BFGS step
    7   -3099.6287768643      3.41e-04   Normal BFGS step
    8   -3099.6287847475      2.40e-04   Normal BFGS step
    9   -3099.6287893897      2.04e-04   Normal BFGS step
   10   -3099.6287920143      2.03e-04   Normal BFGS step
   11   -3099.6287935433      1.35e-04   Normal BFGS step
   12   -3099.6287947639      9.77e-05   Normal BFGS step
   13   -3099.6287955814      4.95e-05   Normal BFGS step
   14   -3099.6287958692      4.97e-05   Normal BFGS step
   15   -3099.6287959248      4.45e-05   Normal BFGS step
   16   -3099.6287960246      3.78e-05   Normal BFGS step
   17   -3099.6287960729      2.76e-05   Normal BFGS step
   18   -3099.6287962704      1.79e-05   Normal BFGS step
   19   -3099.6287962668      1.53e-05   Normal BFGS step
   20   -3099.6287964701      6.39e-06  Convergence criterion met
 ---------------------------------------
 SCF time:   CPU 168.41s  wall 21.00s 
 SCF   energy in the final basis set =    -3099.6287964701
 Total energy in the final basis set =    -3099.6287964701
 
 --------------------------------------------------------------
 
                    Orbital Energies (a.u.)
 --------------------------------------------------------------
 
 Alpha MOs
 -- Occupied --
******** -91.8036 -91.7996 -91.7964 -91.7924 -31.7726 -27.2552 -27.2543
-27.2541 -15.3567 -11.2389 -11.2370 -11.1456 -11.1431 -11.0317  -8.8171
 -8.8132  -8.8085  -8.8046  -6.5000  -6.4977  -6.4971  -6.4961  -6.4937
 -6.4933  -6.4913  -6.4889  -6.4887  -6.4875  -6.4851  -6.4847  -3.9803
 -2.5626  -2.5591  -2.5589  -1.0093  -1.0064  -1.0003  -0.8628  -0.8585
 -0.8069  -0.8052  -0.5989  -0.5860  -0.5011  -0.4984  -0.4971  -0.4958
 -0.4662  -0.4481  -0.4316  -0.4004  -0.3912  -0.3850  -0.3716  -0.3598
 -0.3382  -0.3266  -0.3004  -0.2688  -0.2660  -0.2640  -0.2413  -0.2399
 -0.2337  -0.2035  -0.2016
 -- Virtual --
  0.1477   0.1531   0.1587   0.1725   0.1801   0.1853   0.1867   0.1997
  0.2006   0.2029   0.2056   0.2111   0.2227   0.2289   0.2373   0.2377
  0.2478   0.2521   0.2618   0.2705   0.2777   0.2814   0.2981   0.3059
  0.3086   0.3111   0.3273   0.3290   0.3368   0.3442   0.3505   0.3545
  0.3613   0.3649   0.3701   0.3778   0.3817   0.3882   0.3907   0.3970
  0.4081   0.4218   0.4250   0.4358   0.4399   0.4434   0.4492   0.4506
  0.4611   0.4690   0.4777   0.4863   0.4999   0.5037   0.5098   0.5253
  0.5379   0.5486   0.5704   0.5764   0.5850   0.5964   0.6216   0.7735
  0.7764   0.7826   0.7931   0.8275   0.8300   0.8397   0.8496   0.8611
  0.8678   0.8744   0.8875   0.8983   0.9132   0.9274   0.9851   0.9937
  0.9971   1.0031   1.0081   1.0167   1.0457   1.0460   1.0572   1.0669
  1.0729   1.0762   1.0849   1.0948   1.1086   1.1207   1.1265   1.1317
  1.1418   1.1622   1.1814   1.1987   1.2511   1.2561   1.2609   1.2650
  1.2706   1.2828   1.3067   1.3138   1.3161   1.3494   1.3816   1.3835
  1.4103   1.4218   1.4348   1.4429   1.4630   1.4714   1.4780   1.4986
  1.5112   1.5184   1.5256   1.5363   1.5939   1.6019   1.6034   1.6593
  1.6969   1.7781   1.7915   1.8667   1.8780   1.9044   1.9118   1.9573
  1.9888   2.0310   2.0442   2.1524   2.1591   2.1776   2.1879   2.2051
  2.2535   2.2606   2.3000   2.3728   2.3813   2.3996   2.5000   2.5125
  2.5137   2.5236   2.5582   2.5757   2.6049   2.6722   2.6829   2.6987
  2.7031   2.7064   2.7317   2.7454   2.7515   2.7791   2.8067   2.8192
  2.8724   2.8918   3.0856   3.1054   3.2169   3.2217   3.4020   3.7732
  4.4802   4.4841   4.5295   4.5467   4.7343   4.7433   4.7656   4.9126
  4.9155   4.9594  21.7181
 --------------------------------------------------------------
 
          Ground-State Mulliken Net Atomic Charges

     Atom                 Charge (a.u.)
  ----------------------------------------
      1 Fe                    1.363009
      2 S                    -0.439543
      3 S                    -0.481582
      4 S                    -0.482961
      5 S                    -0.415691
      6 C                     0.335479
      7 C                    -0.781579
      8 C                     0.506747
      9 C                    -0.850180
     10 H                     0.211220
     11 H                     0.219426
     12 H                     0.219301
     13 H                     0.215937
     14 H                     0.227273
     15 H                     0.209863
     16 C                    -0.422649
     17 N                    -0.634072
  ----------------------------------------
  Sum of atomic charges =    -1.000000

 -----------------------------------------------------------------
                    Cartesian Multipole Moments
 -----------------------------------------------------------------
    Charge (ESU x 10^10)
                -4.8032
    Dipole Moment (Debye)
         X       0.3991      Y      -0.0722      Z       7.4323
       Tot       7.4433
    Quadrupole Moments (Debye-Ang)
        XX    -106.7282     XY      -1.4228     YY    -125.0385
        XZ       0.3860     YZ      -0.0015     ZZ    -136.1394
    Octopole Moments (Debye-Ang^2)
       XXX       0.3680    XXY       1.4326    XYY       0.4514
       YYY      -2.2752    XXZ      -1.0135    XYZ      -0.6415
       YYZ      -5.3892    XZZ       7.6811    YZZ       1.2083
       ZZZ      95.3181
    Hexadecapole Moments (Debye-Ang^3)
      XXXX   -3205.8848   XXXY      -5.9242   XXYY    -834.3580
      XYYY     -10.0124   YYYY    -924.1191   XXXZ       0.5607
      XXYZ      -0.4583   XYYZ       0.6780   YYYZ      -1.4334
      XXZZ    -693.2256   XYZZ      -4.1766   YYZZ    -281.8581
      XZZZ     -17.8186   YZZZ       0.6084   ZZZZ   -1000.2476
 -----------------------------------------------------------------
 Calculating analytic gradient of the SCF energy
 Gradient of SCF Energy
            1           2           3           4           5           6
    1   0.0009737  -0.0148065  -0.0265104   0.0260102   0.0135173   0.0089804
    2  -0.0005768   0.0095425   0.0110214  -0.0118310  -0.0106658  -0.0207857
    3   0.0264821  -0.0056142  -0.0076146  -0.0088436  -0.0084744  -0.0090522
            7           8           9          10          11          12
    1  -0.0075291  -0.0070950   0.0062800   0.0015036   0.0000794   0.0013379
    2   0.0028395   0.0221284   0.0030723  -0.0042261   0.0010192   0.0006743
    3   0.0053390   0.0018617   0.0002854   0.0007322   0.0039932  -0.0037142
           13          14          15          16          17
    1  -0.0010915  -0.0009547  -0.0015989   0.0009477  -0.0000441
    2  -0.0041174   0.0008776   0.0006778   0.0005003  -0.0001505
    3  -0.0001868  -0.0040014   0.0038662   0.0087165  -0.0037749
 Max gradient component =       2.651E-02
 RMS gradient           =       9.568E-03
 Gradient time:  CPU 40.14 s  wall 5.02 s
 Geometry Optimization Parameters
   NAtoms,    NIC,     NZ,  NCons,   NDum,   NFix, NCnnct, MaxDiis
       17     125       0       0       0       0       0       0

 Cartesian Hessian Update
 Hessian updated using BFGS update


** GEOMETRY OPTIMIZATION IN DELOCALIZED INTERNAL COORDINATES **
   Searching for a Minimum

   Optimization Cycle:   3

                       Coordinates (Angstroms)
     ATOM                X               Y               Z
      1  Fe        0.0084725302   -0.0018095232    0.1933823489
      2  S         1.8888149812   -1.4480874028    0.1601741471
      3  S         1.8556447242    1.4799171247    0.1799166494
      4  S        -1.8354829181   -1.4785272361    0.3797325379
      5  S        -1.8623844088    1.4456553023    0.3710157259
      6  C         2.7332489143   -0.0130744716    0.2716071092
      7  C         4.2027925750    0.0165858553    0.5671884902
      8  C        -2.7143033629    0.0087924806    0.3696173194
      9  C        -4.2125898131   -0.0000462199    0.2922982078
     10  H         4.6127063241   -0.9895779045    0.6376360331
     11  H         4.3587234081    0.5367242972    1.5118844986
     12  H         4.7244941058    0.5664572159   -0.2171796499
     13  H        -4.5949258953   -1.0180250550    0.2721101358
     14  H        -4.5288112112    0.5192648259   -0.6130036249
     15  H        -4.6293137377    0.5236139915    1.1537685760
     16  C        -0.1148443452    0.0002527146   -1.8716347935
     17  N        -0.1713160819   -0.0051722677   -3.0211204608
   Point Group: c1    Number of degrees of freedom:    45


   Energy is  -3099.628796470

 Hessian updated using BFGS update

 42 Hessian modes will be used to form the next step
  Hessian Eigenvalues:
     0.005358    0.006630    0.009907    0.010194    0.010427    0.011068
     0.075203    0.075284    0.076145    0.076887    0.077645    0.090705
     0.110264    0.140217    0.144174    0.152626    0.159765    0.160000
     0.160033    0.160499    0.161133    0.164018    0.199998    0.200000
     0.216657    0.228992    0.231657    0.242516    0.248012    0.249265
     0.267741    0.325785    0.325956    0.326041    0.326337    0.327120
     0.329804    0.334009    0.344710    0.389496    0.400151    1.300702

 Minimum search - taking simple RFO step
 Searching for Lamda that Minimizes Along All modes
 Value Taken    Lamda =  -0.02668993
 Calculated Step too Large.  Step scaled by  0.593919
 Step Taken.  Stepsize is  0.300000

                             Maximum     Tolerance    Cnvgd?
         Gradient           0.024418      0.000300      NO
         Displacement       0.098417      0.001200      NO
         Energy change     -0.022226      0.000001      NO


 New Cartesian Coordinates Obtained by Inverse Iteration

 Displacement from previous Coordinates is:  0.542671
 ----------------------------------------------------------------
             Standard Nuclear Orientation (Angstroms)
    I     Atom           X                Y                Z
 ----------------------------------------------------------------
    1      Fe     -0.0011419512    -0.0015982916     0.1748817624
    2      S       1.9373604682    -1.4485419976     0.2272636003
    3      S       1.9195170412     1.4610052830     0.2498390397
    4      S      -1.9160265831    -1.4617745774     0.3844932733
    5      S      -1.9281069029     1.4467560265     0.3784811506
    6      C       2.7792029354    -0.0029787527     0.3321803894
    7      C       4.2666069393     0.0195999460     0.5533076363
    8      C      -2.7751391833    -0.0042117697     0.3658109104
    9      C      -4.2774457301    -0.0053254441     0.2872466407
   10      H       4.6756570038    -0.9837591300     0.5964988064
   11      H       4.4731842331     0.5351248554     1.4868672511
   12      H       4.7483670282     0.5729992756    -0.2490702442
   13      H      -4.6676298951    -1.0161826148     0.2674007319
   14      H      -4.5887419908     0.5185080201    -0.6127900907
   15      H      -4.6878127682     0.5241817028     1.1436706764
   16      C      -0.0975680626    -0.0021796123    -1.8998760000
   17      N      -0.1393567933    -0.0086791920    -3.0488122838
 ----------------------------------------------------------------
 Molecular Point Group                 C1    NOp =  1
 Largest Abelian Subgroup              C1    NOp =  1
 Nuclear Repulsion Energy =        1334.84451433 hartrees
 There are       67 alpha and       67 beta electrons
 Applying Cartesian multipole field
    Component          Value
    ---------          -----
     (2,0,0)        1.00000E-11
     (0,2,0)        2.00000E-11
     (0,0,2)       -3.00000E-11
 Nucleus-field energy     =     0.0000000232 hartrees
 Requested basis set is 6-31+G(d)
 There are 74 shells and 254 basis functions
 A cutoff of  1.0D-09 yielded   2050 shell pairs
 There are     26766 function pairs (     27471 Cartesian)
 Smallest overlap matrix eigenvalue = 1.16E-05

 Q-Chem warning in module stvman/mkSTV.C, line 318:

 Overlap eigenvalue is smaller than square root of threshold
 Use THRESH >= 12 to get rid of this warning

 Guess MOs from SCF MO coefficient file

 -----------------------------------------------------------------------
  General SCF calculation program by
  Eric Jon Sundstrom, Paul Horn, Yuezhi Mao, Dmitri Zuev, Alec White,
  David Stuck, Shaama M.S., Shane Yost, Joonho Lee, David Small,
  Daniel Levine, Susi Lehtola, Hugh Burton, Evgeny Epifanovsky
 -----------------------------------------------------------------------
 Hartree-Fock
 using 8 threads for integral computing
 -------------------------------------------------------
 OpenMP Integral computing Module                
 Release: version 2.0, May 2017, Q-Chem Inc. Pleasanton 
 -------------------------------------------------------
 A restricted SCF calculation will be
 performed using DIIS, GDM
 SCF converges when RMS gradient is below 1.0e-05
 ---------------------------------------
  Cycle       Energy         DIIS error
 ---------------------------------------
    1   -3099.6354473693      7.19e-04  
    2   -3099.6407542712      1.50e-04  Done DIIS. Switching to GDM
 ---------------------------------------
  Cycle       Energy        RMS Gradient
 ---------------------------------------
    1   -3099.6407542712      2.84e-03   Normal BFGS step
    2   -3099.6411780609      1.78e-03   Normal BFGS step
    3   -3099.6412698396      6.43e-04   Normal BFGS step
    4   -3099.6412905714      3.56e-04   Normal BFGS step
    5   -3099.6413005523      3.84e-04   Normal BFGS step
    6   -3099.6413080943      3.64e-04   Normal BFGS step
    7   -3099.6413162349      4.16e-04   Normal BFGS step
    8   -3099.6413271969      4.57e-04   Normal BFGS step
    9   -3099.6413364724      2.99e-04   Normal BFGS step
   10   -3099.6413412805      2.81e-04   Normal BFGS step
   11   -3099.6413433949      2.13e-04   Normal BFGS step
   12   -3099.6413449257      1.41e-04   Normal BFGS step
   13   -3099.6413459289      9.79e-05   Normal BFGS step
   14   -3099.6413462697      3.29e-05   Normal BFGS step
   15   -3099.6413463330      2.69e-05   Normal BFGS step
   16   -3099.6413462319      2.36e-05  Line search: overstep
   17   -3099.6413463306      2.66e-05   Normal BFGS step
   18   -3099.6413462625      2.09e-05  Line search: overstep
   19   -3099.6413463441      2.59e-05   Normal BFGS step
   20   -3099.6413462735      1.84e-05  Line search: overstep
   21   -3099.6413463654      2.51e-05   Normal BFGS step
   22   -3099.6413463990      1.57e-05   Normal BFGS step
   23   -3099.6413464320      1.40e-05   Normal BFGS step
   24   -3099.6413464867      8.90e-06  Convergence criterion met
 ---------------------------------------
 SCF time:   CPU 190.94s  wall 24.00s 
 SCF   energy in the final basis set =    -3099.6413464867
 Total energy in the final basis set =    -3099.6413464867
 
 --------------------------------------------------------------
 
                    Orbital Energies (a.u.)
 --------------------------------------------------------------
 
 Alpha MOs
 -- Occupied --
******** -91.8027 -91.8000 -91.7980 -91.7963 -31.7812 -27.2636 -27.2632
-27.2629 -15.3606 -11.2377 -11.2360 -11.1448 -11.1426 -11.0355  -8.8157
 -8.8126  -8.8111  -8.8089  -6.4986  -6.4962  -6.4958  -6.4955  -6.4941
 -6.4931  -6.4928  -6.4919  -6.4916  -6.4913  -6.4894  -6.4891  -3.9887
 -2.5704  -2.5672  -2.5671  -1.0119  -1.0096  -1.0045  -0.8636  -0.8600
 -0.8106  -0.8092  -0.5974  -0.5863  -0.5021  -0.4990  -0.4986  -0.4964
 -0.4652  -0.4497  -0.4332  -0.4053  -0.3977  -0.3866  -0.3753  -0.3717
 -0.3404  -0.3255  -0.3084  -0.2732  -0.2701  -0.2668  -0.2451  -0.2378
 -0.2325  -0.2051  -0.2041
 -- Virtual --
  0.1482   0.1532   0.1584   0.1725   0.1804   0.1847   0.1863   0.1990
  0.2003   0.2020   0.2067   0.2111   0.2227   0.2269   0.2378   0.2387
  0.2466   0.2506   0.2619   0.2676   0.2762   0.2794   0.2921   0.3039
  0.3108   0.3129   0.3230   0.3269   0.3341   0.3440   0.3476   0.3525
  0.3585   0.3591   0.3697   0.3751   0.3815   0.3866   0.3889   0.3959
  0.4071   0.4205   0.4264   0.4312   0.4371   0.4425   0.4465   0.4477
  0.4594   0.4676   0.4726   0.4865   0.4967   0.4988   0.5100   0.5220
  0.5369   0.5615   0.5673   0.5817   0.5923   0.6060   0.6156   0.7642
  0.7740   0.7777   0.7910   0.8251   0.8326   0.8400   0.8438   0.8573
  0.8707   0.8734   0.8834   0.8954   0.9098   0.9291   0.9773   0.9907
  0.9961   0.9988   1.0072   1.0103   1.0459   1.0512   1.0581   1.0642
  1.0730   1.0770   1.0813   1.0975   1.1060   1.1196   1.1269   1.1386
  1.1452   1.1763   1.1818   1.1985   1.2411   1.2506   1.2538   1.2615
  1.2668   1.2738   1.2937   1.3066   1.3181   1.3372   1.3807   1.3822
  1.4151   1.4232   1.4383   1.4390   1.4671   1.4673   1.4729   1.5020
  1.5106   1.5200   1.5236   1.5423   1.5898   1.5951   1.6019   1.6081
  1.6927   1.7712   1.7783   1.8610   1.8762   1.8813   1.8999   1.9531
  1.9845   2.0247   2.0380   2.1288   2.1503   2.1658   2.2082   2.2121
  2.2460   2.2528   2.2697   2.3636   2.3716   2.3728   2.4972   2.5065
  2.5118   2.5185   2.5684   2.5769   2.6091   2.6691   2.6898   2.6928
  2.6941   2.7000   2.7321   2.7488   2.7535   2.7595   2.7877   2.8035
  2.8827   2.8880   3.0812   3.1035   3.2110   3.2158   3.3851   3.7657
  4.4811   4.4870   4.5274   4.5466   4.7368   4.7420   4.7529   4.9106
  4.9175   4.9505  21.6825
 --------------------------------------------------------------
 
          Ground-State Mulliken Net Atomic Charges

     Atom                 Charge (a.u.)
  ----------------------------------------
      1 Fe                    1.399538
      2 S                    -0.473686
      3 S                    -0.471504
      4 S                    -0.496395
      5 S                    -0.459849
      6 C                     0.439427
      7 C                    -0.849149
      8 C                     0.534790
      9 C                    -0.877966
     10 H                     0.213403
     11 H                     0.217127
     12 H                     0.220549
     13 H                     0.214754
     14 H                     0.227664
     15 H                     0.211004
     16 C                    -0.415207
     17 N                    -0.634499
  ----------------------------------------
  Sum of atomic charges =    -1.000000

 -----------------------------------------------------------------
                    Cartesian Multipole Moments
 -----------------------------------------------------------------
    Charge (ESU x 10^10)
                -4.8032
    Dipole Moment (Debye)
         X       0.3532      Y      -0.0826      Z       7.2626
       Tot       7.2716
    Quadrupole Moments (Debye-Ang)
        XX    -107.4669     XY      -0.3695     YY    -125.1441
        XZ       0.3769     YZ      -0.1543     ZZ    -136.5595
    Octopole Moments (Debye-Ang^2)
       XXX       2.7543    XXY       1.4517    XYY       1.1712
       YYY      -2.0641    XXZ      -3.3368    XYZ      -0.2792
       YYZ      -7.2173    XZZ       6.8087    YZZ       1.2235
       ZZZ      91.3779
    Hexadecapole Moments (Debye-Ang^3)
      XXXX   -3338.7029   XXXY      -2.6383   XXYY    -862.7468
      XYYY      -5.6639   YYYY    -916.1162   XXXZ      -5.9851
      XXYZ      -1.1261   XYYZ      -3.3179   YYYZ      -2.5898
      XXZZ    -720.6581   XYZZ      -2.2240   YYZZ    -283.0093
      XZZZ     -23.7530   YZZZ      -1.2411   ZZZZ   -1021.2138
 -----------------------------------------------------------------
 Calculating analytic gradient of the SCF energy
 Gradient of SCF Energy
            1           2           3           4           5           6
    1   0.0006241  -0.0097116  -0.0130615   0.0124699   0.0090512   0.0021048
    2  -0.0006088   0.0072782  -0.0007618   0.0011179  -0.0077566  -0.0067799
    3   0.0240772  -0.0059987  -0.0063615  -0.0063850  -0.0066714  -0.0053989
            7           8           9          10          11          12
    1  -0.0028832  -0.0006940   0.0023205   0.0007036  -0.0001381   0.0006838
    2   0.0017809   0.0068314   0.0012585  -0.0015903   0.0001727   0.0000221
    3   0.0041037   0.0008912   0.0001158   0.0003081   0.0013596  -0.0015363
           13          14          15          16          17
    1  -0.0004090  -0.0004406  -0.0007263  -0.0000415   0.0001479
    2  -0.0014537   0.0001803   0.0000052   0.0004355  -0.0001314
    3  -0.0001351  -0.0015627   0.0015626   0.0031815  -0.0015501
 Max gradient component =       2.408E-02
 RMS gradient           =       5.514E-03
 Gradient time:  CPU 39.52 s  wall 4.95 s
 Geometry Optimization Parameters
   NAtoms,    NIC,     NZ,  NCons,   NDum,   NFix, NCnnct, MaxDiis
       17     125       0       0       0       0       0       0

 Cartesian Hessian Update
 Hessian updated using BFGS update


** GEOMETRY OPTIMIZATION IN DELOCALIZED INTERNAL COORDINATES **
   Searching for a Minimum

   Optimization Cycle:   4

                       Coordinates (Angstroms)
     ATOM                X               Y               Z
      1  Fe       -0.0011419512   -0.0015982916    0.1748817624
      2  S         1.9373604682   -1.4485419976    0.2272636003
      3  S         1.9195170412    1.4610052830    0.2498390397
      4  S        -1.9160265831   -1.4617745774    0.3844932733
      5  S        -1.9281069029    1.4467560265    0.3784811506
      6  C         2.7792029354   -0.0029787527    0.3321803894
      7  C         4.2666069393    0.0195999460    0.5533076363
      8  C        -2.7751391833   -0.0042117697    0.3658109104
      9  C        -4.2774457301   -0.0053254441    0.2872466407
     10  H         4.6756570038   -0.9837591300    0.5964988064
     11  H         4.4731842331    0.5351248554    1.4868672511
     12  H         4.7483670282    0.5729992756   -0.2490702442
     13  H        -4.6676298951   -1.0161826148    0.2674007319
     14  H        -4.5887419908    0.5185080201   -0.6127900907
     15  H        -4.6878127682    0.5241817028    1.1436706764
     16  C        -0.0975680626   -0.0021796123   -1.8998760000
     17  N        -0.1393567933   -0.0086791920   -3.0488122838
   Point Group: c1    Number of degrees of freedom:    45


   Energy is  -3099.641346487

 Hessian updated using BFGS update

 43 Hessian modes will be used to form the next step
  Hessian Eigenvalues:
     0.005377    0.006634    0.009907    0.010194    0.010428    0.011630
     0.065735    0.075245    0.075304    0.076376    0.077280    0.077676
     0.110258    0.139932    0.144865    0.152705    0.159761    0.160000
     0.160009    0.160065    0.160506    0.161205    0.164023    0.199997
     0.200000    0.216658    0.231612    0.242296    0.247386    0.248963
     0.254161    0.286281    0.325787    0.325958    0.326045    0.326341
     0.327124    0.329884    0.334057    0.351988    0.389497    0.401331
     1.300819

 Minimum search - taking simple RFO step
 Searching for Lamda that Minimizes Along All modes
 Value Taken    Lamda =  -0.01387379
 Calculated Step too Large.  Step scaled by  0.660001
 Step Taken.  Stepsize is  0.300000

                             Maximum     Tolerance    Cnvgd?
         Gradient           0.014594      0.000300      NO
         Displacement       0.125853      0.001200      NO
         Energy change     -0.012550      0.000001      NO


 New Cartesian Coordinates Obtained by Inverse Iteration

 Displacement from previous Coordinates is:  0.513631
 ----------------------------------------------------------------
             Standard Nuclear Orientation (Angstroms)
    I     Atom           X                Y                Z
 ----------------------------------------------------------------
    1      Fe     -0.0092817297    -0.0019840418     0.1417054220
    2      S       1.9822293399    -1.4511628895     0.3037721132
    3      S       1.9674402036     1.4568139721     0.3265611891
    4      S      -1.9821079459    -1.4625976125     0.3780096579
    5      S      -1.9912445284     1.4490746914     0.3793117695
    6      C       2.8200510569     0.0042353744     0.3911876349
    7      C       4.3187718914     0.0212244281     0.5397877329
    8      C      -2.8326823979    -0.0142172611     0.3617364125
    9      C      -4.3371549264    -0.0074059104     0.2898435559
   10      H       4.7250763715    -0.9810767202     0.5580240960
   11      H       4.5757191245     0.5344005703     1.4603506376
   12      H       4.7583391953     0.5771713890    -0.2817075348
   13      H      -4.7347159450    -1.0130728310     0.2722653667
   14      H      -4.6474967537     0.5209206045    -0.6052849745
   15      H      -4.7366417563     0.5277326048     1.1451888845
   16      C      -0.0670604002    -0.0049310976    -1.9373664383
   17      N      -0.0883150107    -0.0121815433    -3.0859922752
 ----------------------------------------------------------------
 Molecular Point Group                 C1    NOp =  1
 Largest Abelian Subgroup              C1    NOp =  1
 Nuclear Repulsion Energy =        1318.04663657 hartrees
 There are       67 alpha and       67 beta electrons
 Applying Cartesian multipole field
    Component          Value
    ---------          -----
     (2,0,0)        1.00000E-11
     (0,2,0)        2.00000E-11
     (0,0,2)       -3.00000E-11
 Nucleus-field energy     =     0.0000000237 hartrees
 Requested basis set is 6-31+G(d)
 There are 74 shells and 254 basis functions
 A cutoff of  1.0D-09 yielded   2033 shell pairs
 There are     26570 function pairs (     27275 Cartesian)
 Smallest overlap matrix eigenvalue = 1.45E-05

 Q-Chem warning in module stvman/mkSTV.C, line 318:

 Overlap eigenvalue is smaller than square root of threshold
 Use THRESH >= 12 to get rid of this warning

 Guess MOs from SCF MO coefficient file

 -----------------------------------------------------------------------
  General SCF calculation program by
  Eric Jon Sundstrom, Paul Horn, Yuezhi Mao, Dmitri Zuev, Alec White,
  David Stuck, Shaama M.S., Shane Yost, Joonho Lee, David Small,
  Daniel Levine, Susi Lehtola, Hugh Burton, Evgeny Epifanovsky
 -----------------------------------------------------------------------
 Hartree-Fock
 using 8 threads for integral computing
 -------------------------------------------------------
 OpenMP Integral computing Module                
 Release: version 2.0, May 2017, Q-Chem Inc. Pleasanton 
 -------------------------------------------------------
 A restricted SCF calculation will be
 performed using DIIS, GDM
 SCF converges when RMS gradient is below 1.0e-05
 ---------------------------------------
  Cycle       Energy         DIIS error
 ---------------------------------------
    1   -3099.6431777540      6.78e-04  
    2   -3099.6480267282      1.38e-04  Done DIIS. Switching to GDM
 ---------------------------------------
  Cycle       Energy        RMS Gradient
 ---------------------------------------
    1   -3099.6480267282      2.42e-03   Normal BFGS step
    2   -3099.6483866300      8.10e-04   Normal BFGS step
    3   -3099.6484542191      4.44e-04   Normal BFGS step
    4   -3099.6484653458      3.94e-04   Normal BFGS step
    5   -3099.6484751622      3.87e-04   Normal BFGS step
    6   -3099.6484859928      3.69e-04   Normal BFGS step
    7   -3099.6485005086      3.82e-04   Normal BFGS step
    8   -3099.6485172434      3.63e-04   Normal BFGS step
    9   -3099.6485277448      2.49e-04   Normal BFGS step
   10   -3099.6485318262      2.00e-04   Normal BFGS step
   11   -3099.6485332569      1.51e-04   Normal BFGS step
   12   -3099.6485340845      9.84e-05   Normal BFGS step
   13   -3099.6485346643      4.57e-05   Normal BFGS step
   14   -3099.6485348480      2.71e-05   Normal BFGS step
   15   -3099.6485348678      1.26e-05   Normal BFGS step
   16   -3099.6485348909      5.20e-06  Convergence criterion met
 ---------------------------------------
 SCF time:   CPU 136.03s  wall 17.00s 
 SCF   energy in the final basis set =    -3099.6485348909
 Total energy in the final basis set =    -3099.6485348909
 
 --------------------------------------------------------------
 
                    Orbital Energies (a.u.)
 --------------------------------------------------------------
 
 Alpha MOs
 -- Occupied --
******** -91.8033 -91.8031 -91.7994 -91.7986 -31.7897 -27.2720 -27.2718
-27.2714 -15.3651 -11.2382 -11.2372 -11.1447 -11.1430 -11.0399  -8.8158
 -8.8156  -8.8120  -8.8111  -6.4988  -6.4986  -6.4964  -6.4962  -6.4960
 -6.4958  -6.4951  -6.4941  -6.4926  -6.4923  -6.4916  -6.4914  -3.9971
 -2.5784  -2.5755  -2.5753  -1.0131  -1.0110  -1.0088  -0.8640  -0.8611
 -0.8120  -0.8107  -0.5967  -0.5871  -0.5032  -0.5005  -0.4992  -0.4974
 -0.4643  -0.4508  -0.4359  -0.4104  -0.4048  -0.3870  -0.3826  -0.3774
 -0.3424  -0.3236  -0.3143  -0.2784  -0.2730  -0.2702  -0.2485  -0.2357
 -0.2319  -0.2068  -0.2061
 -- Virtual --
  0.1488   0.1541   0.1578   0.1718   0.1803   0.1844   0.1858   0.1977
  0.2000   0.2011   0.2069   0.2105   0.2222   0.2260   0.2373   0.2399
  0.2451   0.2505   0.2621   0.2636   0.2730   0.2785   0.2839   0.3009
  0.3123   0.3169   0.3185   0.3245   0.3334   0.3421   0.3434   0.3480
  0.3532   0.3550   0.3663   0.3733   0.3800   0.3855   0.3865   0.3943
  0.4046   0.4167   0.4256   0.4268   0.4328   0.4384   0.4446   0.4479
  0.4572   0.4639   0.4701   0.4849   0.4908   0.4953   0.5100   0.5181
  0.5344   0.5575   0.5624   0.5805   0.5937   0.6106   0.6121   0.7647
  0.7724   0.7756   0.7911   0.8234   0.8312   0.8402   0.8446   0.8538
  0.8695   0.8711   0.8808   0.8931   0.9053   0.9392   0.9686   0.9843
  0.9913   0.9925   1.0066   1.0138   1.0441   1.0542   1.0578   1.0594
  1.0705   1.0795   1.0811   1.0981   1.1035   1.1201   1.1272   1.1447
  1.1496   1.1803   1.1978   1.1997   1.2317   1.2375   1.2523   1.2600
  1.2660   1.2699   1.2766   1.3045   1.3188   1.3245   1.3796   1.3806
  1.4133   1.4203   1.4352   1.4377   1.4594   1.4657   1.4662   1.5031
  1.5113   1.5138   1.5214   1.5454   1.5643   1.5833   1.5853   1.6007
  1.6880   1.7467   1.7675   1.8478   1.8503   1.8814   1.8898   1.9483
  1.9802   2.0181   2.0307   2.1082   2.1430   2.1565   2.2130   2.2160
  2.2326   2.2408   2.2513   2.3328   2.3669   2.3704   2.4935   2.4999
  2.5079   2.5168   2.5602   2.5824   2.6106   2.6631   2.6848   2.6860
  2.6922   2.6939   2.7298   2.7408   2.7512   2.7536   2.7684   2.7876
  2.8840   2.8852   3.0771   3.0978   3.2059   3.2114   3.3730   3.7603
  4.4787   4.4881   4.5273   4.5461   4.7356   4.7395   4.7426   4.9059
  4.9136   4.9432  21.6492
 --------------------------------------------------------------
 
          Ground-State Mulliken Net Atomic Charges

     Atom                 Charge (a.u.)
  ----------------------------------------
      1 Fe                    1.427875
      2 S                    -0.494775
      3 S                    -0.468872
      4 S                    -0.508378
      5 S                    -0.482198
      6 C                     0.535291
      7 C                    -0.909746
      8 C                     0.550661
      9 C                    -0.907160
     10 H                     0.215014
     11 H                     0.215486
     12 H                     0.222463
     13 H                     0.214344
     14 H                     0.227975
     15 H                     0.212416
     16 C                    -0.416771
     17 N                    -0.633625
  ----------------------------------------
  Sum of atomic charges =    -1.000000

 -----------------------------------------------------------------
                    Cartesian Multipole Moments
 -----------------------------------------------------------------
    Charge (ESU x 10^10)
                -4.8032
    Dipole Moment (Debye)
         X       0.2526      Y      -0.0725      Z       7.0548
       Tot       7.0597
    Quadrupole Moments (Debye-Ang)
        XX    -108.0579     XY       0.1311     YY    -125.3990
        XZ       0.3871     YZ      -0.2407     ZZ    -137.2665
    Octopole Moments (Debye-Ang^2)
       XXX       4.5278    XXY       1.6408    XYY       1.7562
       YYY      -1.6434    XXZ      -5.2241    XYZ      -0.0492
       YYZ      -8.8262    XZZ       5.1403    YZZ       1.3815
       ZZZ      88.7323
    Hexadecapole Moments (Debye-Ang^3)
      XXXX   -3455.9072   XXXY      -1.2159   XXYY    -890.5161
      XYYY      -4.4951   YYYY    -917.2175   XXXZ     -14.2748
      XXYZ      -1.5249   XYYZ      -7.7491   YYYZ      -3.4229
      XXZZ    -746.2440   XYZZ      -1.3634   YYZZ    -286.8334
      XZZZ     -29.0131   YZZZ      -2.6605   ZZZZ   -1051.0486
 -----------------------------------------------------------------
 Calculating analytic gradient of the SCF energy
 Gradient of SCF Energy
            1           2           3           4           5           6
    1   0.0002672  -0.0057229  -0.0052283   0.0053597   0.0056130   0.0001411
    2  -0.0005580   0.0040923  -0.0052788   0.0046743  -0.0033449   0.0012187
    3   0.0200528  -0.0051062  -0.0049457  -0.0045728  -0.0050114  -0.0025288
            7           8           9          10          11          12
    1  -0.0000892   0.0001999  -0.0000929   0.0000521  -0.0001984   0.0001052
    2   0.0004795  -0.0012409   0.0006775  -0.0000485  -0.0001869  -0.0002853
    3   0.0022126   0.0006387  -0.0002927   0.0000933   0.0000413  -0.0001208
           13          14          15          16          17
    1   0.0001110  -0.0000715  -0.0000486  -0.0006152   0.0002180
    2   0.0000025  -0.0001231  -0.0002942   0.0003215  -0.0001056
    3  -0.0001053  -0.0000818   0.0001761  -0.0002373  -0.0002118
 Max gradient component =       2.005E-02
 RMS gradient           =       3.741E-03
 Gradient time:  CPU 38.88 s  wall 4.87 s
 Geometry Optimization Parameters
   NAtoms,    NIC,     NZ,  NCons,   NDum,   NFix, NCnnct, MaxDiis
       17     125       0       0       0       0       0       0

 Cartesian Hessian Update
 Hessian updated using BFGS update


** GEOMETRY OPTIMIZATION IN DELOCALIZED INTERNAL COORDINATES **
   Searching for a Minimum

   Optimization Cycle:   5

                       Coordinates (Angstroms)
     ATOM                X               Y               Z
      1  Fe       -0.0092817297   -0.0019840418    0.1417054220
      2  S         1.9822293399   -1.4511628895    0.3037721132
      3  S         1.9674402036    1.4568139721    0.3265611891
      4  S        -1.9821079459   -1.4625976125    0.3780096579
      5  S        -1.9912445284    1.4490746914    0.3793117695
      6  C         2.8200510569    0.0042353744    0.3911876349
      7  C         4.3187718914    0.0212244281    0.5397877329
      8  C        -2.8326823979   -0.0142172611    0.3617364125
      9  C        -4.3371549264   -0.0074059104    0.2898435559
     10  H         4.7250763715   -0.9810767202    0.5580240960
     11  H         4.5757191245    0.5344005703    1.4603506376
     12  H         4.7583391953    0.5771713890   -0.2817075348
     13  H        -4.7347159450   -1.0130728310    0.2722653667
     14  H        -4.6474967537    0.5209206045   -0.6052849745
     15  H        -4.7366417563    0.5277326048    1.1451888845
     16  C        -0.0670604002   -0.0049310976   -1.9373664383
     17  N        -0.0883150107   -0.0121815433   -3.0859922752
   Point Group: c1    Number of degrees of freedom:    45


   Energy is  -3099.648534891

 Hessian updated using BFGS update

 44 Hessian modes will be used to form the next step
  Hessian Eigenvalues:
     0.005399    0.006812    0.009904    0.010191    0.010428    0.012074
     0.043969    0.075236    0.075293    0.076326    0.077100    0.077670
     0.110255    0.140133    0.148628    0.153228    0.159759    0.160000
     0.160005    0.160017    0.160067    0.160506    0.161252    0.164021
     0.199997    0.200000    0.216657    0.231872    0.242289    0.248197
     0.249621    0.256124    0.297897    0.325787    0.325961    0.326045
     0.326342    0.327126    0.329918    0.334066    0.365315    0.389513
     0.401357    1.301120

 Minimum search - taking simple RFO step
 Searching for Lamda that Minimizes Along All modes
 Value Taken    Lamda =  -0.00757290
 Calculated Step too Large.  Step scaled by  0.748318
 Step Taken.  Stepsize is  0.300000

                             Maximum     Tolerance    Cnvgd?
         Gradient           0.011072      0.000300      NO
         Displacement       0.135802      0.001200      NO
         Energy change     -0.007188      0.000001      NO


 New Cartesian Coordinates Obtained by Inverse Iteration

 Displacement from previous Coordinates is:  0.506694
 ----------------------------------------------------------------
             Standard Nuclear Orientation (Angstroms)
    I     Atom           X                Y                Z
 ----------------------------------------------------------------
    1      Fe     -0.0126806101    -0.0009128452     0.0543620831
    2      S       2.0210096313    -1.4552683766     0.3449546236
    3      S       2.0067471046     1.4599424943     0.3678617363
    4      S      -2.0356643929    -1.4674054338     0.3400594887
    5      S      -2.0442181851     1.4529538474     0.3498064549
    6      C       2.8519941538     0.0068939704     0.4317752264
    7      C       4.3538879121     0.0212713056     0.5556583655
    8      C      -2.8787017223    -0.0189640383     0.3444330689
    9      C      -4.3853943765    -0.0089420045     0.3247547446
   10      H       4.7584676852    -0.9805420242     0.5653762994
   11      H       4.6303271591     0.5353752259     1.4696208183
   12      H       4.7766026097     0.5780953968    -0.2728905592
   13      H      -4.7878633647    -1.0119322127     0.3241773770
   14      H      -4.7230696684     0.5197432834    -0.5591563838
   15      H      -4.7514950271     0.5324106386     1.1900513918
   16      C      -0.0295106002    -0.0060145761    -2.0226239729
   17      N      -0.0295125200    -0.0137609237    -3.1708275126
 ----------------------------------------------------------------
 Molecular Point Group                 C1    NOp =  1
 Largest Abelian Subgroup              C1    NOp =  1
 Nuclear Repulsion Energy =        1302.04340516 hartrees
 There are       67 alpha and       67 beta electrons
 Applying Cartesian multipole field
    Component          Value
    ---------          -----
     (2,0,0)        1.00000E-11
     (0,2,0)        2.00000E-11
     (0,0,2)       -3.00000E-11
 Nucleus-field energy     =     0.0000000239 hartrees
 Requested basis set is 6-31+G(d)
 There are 74 shells and 254 basis functions
 A cutoff of  1.0D-09 yielded   2012 shell pairs
 There are     26461 function pairs (     27166 Cartesian)
 Smallest overlap matrix eigenvalue = 2.20E-05

 Q-Chem warning in module stvman/mkSTV.C, line 318:

 Overlap eigenvalue is smaller than square root of threshold
 Use THRESH >= 12 to get rid of this warning

 Guess MOs from SCF MO coefficient file

 -----------------------------------------------------------------------
  General SCF calculation program by
  Eric Jon Sundstrom, Paul Horn, Yuezhi Mao, Dmitri Zuev, Alec White,
  David Stuck, Shaama M.S., Shane Yost, Joonho Lee, David Small,
  Daniel Levine, Susi Lehtola, Hugh Burton, Evgeny Epifanovsky
 -----------------------------------------------------------------------
 Hartree-Fock
 using 8 threads for integral computing
 -------------------------------------------------------
 OpenMP Integral computing Module                
 Release: version 2.0, May 2017, Q-Chem Inc. Pleasanton 
 -------------------------------------------------------
 A restricted SCF calculation will be
 performed using DIIS, GDM
 SCF converges when RMS gradient is below 1.0e-05
 ---------------------------------------
  Cycle       Energy         DIIS error
 ---------------------------------------
    1   -3099.6476109917      7.09e-04  
    2   -3099.6523188402      1.43e-04  Done DIIS. Switching to GDM
 ---------------------------------------
  Cycle       Energy        RMS Gradient
 ---------------------------------------
    1   -3099.6523188402      2.81e-03   Normal BFGS step
    2   -3099.6526780474      1.12e-03   Normal BFGS step
    3   -3099.6527430230      7.58e-04   Normal BFGS step
    4   -3099.6527557707      3.80e-04   Normal BFGS step
    5   -3099.6527616024      4.11e-04   Normal BFGS step
    6   -3099.6527688905      4.10e-04   Normal BFGS step
    7   -3099.6527790392      3.60e-04   Normal BFGS step
    8   -3099.6527924725      4.49e-04   Normal BFGS step
    9   -3099.6528043500      3.33e-04   Normal BFGS step
   10   -3099.6528091388      1.11e-04   Normal BFGS step
   11   -3099.6528100063      7.95e-05   Normal BFGS step
   12   -3099.6528102283      5.58e-05   Normal BFGS step
   13   -3099.6528103493      3.26e-05   Normal BFGS step
   14   -3099.6528104851      1.41e-05   Normal BFGS step
   15   -3099.6528105220      1.10e-05   Normal BFGS step
   16   -3099.6528105220      5.92e-06  Convergence criterion met
 ---------------------------------------
 SCF time:   CPU 131.82s  wall 16.00s 
 SCF   energy in the final basis set =    -3099.6528105220
 Total energy in the final basis set =    -3099.6528105220
 
 --------------------------------------------------------------
 
                    Orbital Energies (a.u.)
 --------------------------------------------------------------
 
 Alpha MOs
 -- Occupied --
******** -91.8055 -91.8049 -91.8018 -91.8002 -31.7981 -27.2803 -27.2803
-27.2800 -15.3702 -11.2395 -11.2389 -11.1451 -11.1439 -11.0448  -8.8178
 -8.8170  -8.8141  -8.8122  -6.5008  -6.4999  -6.4984  -6.4980  -6.4975
 -6.4972  -6.4971  -6.4953  -6.4946  -6.4943  -6.4927  -6.4925  -4.0055
 -2.5864  -2.5838  -2.5837  -1.0149  -1.0127  -1.0117  -0.8639  -0.8616
 -0.8130  -0.8117  -0.5963  -0.5881  -0.5041  -0.5019  -0.4996  -0.4985
 -0.4638  -0.4517  -0.4397  -0.4161  -0.4122  -0.3929  -0.3871  -0.3790
 -0.3442  -0.3229  -0.3186  -0.2828  -0.2763  -0.2741  -0.2507  -0.2341
 -0.2318  -0.2088  -0.2077
 -- Virtual --
  0.1492   0.1549   0.1570   0.1706   0.1801   0.1841   0.1853   0.1969
  0.1992   0.2003   0.2065   0.2098   0.2224   0.2257   0.2351   0.2405
  0.2436   0.2517   0.2605   0.2630   0.2709   0.2765   0.2775   0.2973
  0.3126   0.3153   0.3191   0.3219   0.3324   0.3359   0.3386   0.3424
  0.3503   0.3512   0.3590   0.3756   0.3790   0.3820   0.3849   0.3938
  0.4021   0.4114   0.4223   0.4235   0.4290   0.4345   0.4434   0.4474
  0.4540   0.4608   0.4695   0.4816   0.4843   0.4933   0.5088   0.5131
  0.5307   0.5509   0.5549   0.5789   0.5859   0.6042   0.6067   0.7677
  0.7690   0.7750   0.7921   0.8223   0.8291   0.8389   0.8476   0.8511
  0.8641   0.8710   0.8789   0.8812   0.9036   0.9432   0.9618   0.9791
  0.9838   0.9896   1.0052   1.0178   1.0424   1.0533   1.0556   1.0585
  1.0664   1.0785   1.0830   1.0975   1.1007   1.1215   1.1273   1.1457
  1.1565   1.1795   1.1983   1.2097   1.2237   1.2251   1.2456   1.2588
  1.2600   1.2663   1.2835   1.2993   1.3131   1.3198   1.3784   1.3793
  1.4100   1.4156   1.4328   1.4362   1.4510   1.4596   1.4628   1.4968
  1.5059   1.5072   1.5119   1.5414   1.5465   1.5749   1.5775   1.5992
  1.6826   1.7099   1.7587   1.8252   1.8307   1.8798   1.8827   1.9435
  1.9786   2.0113   2.0235   2.0901   2.1371   2.1482   2.2032   2.2146
  2.2158   2.2342   2.2452   2.3080   2.3632   2.3682   2.4891   2.4930
  2.5048   2.5162   2.5499   2.5843   2.6088   2.6577   2.6787   2.6813
  2.6878   2.6886   2.7240   2.7257   2.7496   2.7524   2.7526   2.7717
[...]
  GDM::   1811 failed line searches.  Resetting
 1823   -3099.6569271399      3.10e-05  Line search: understep
  GDM::   1812 failed line searches.  Resetting
 1824   -3099.6569271399      3.10e-05  Line search: understep
  GDM::   1813 failed line searches.  Resetting
 1825   -3099.6569271399      3.10e-05  Line search: understep
  GDM::   1814 failed line searches.  Resetting
 1826   -3099.6569271399      3.10e-05  Line search: understep
  GDM::   1815 failed line searches.  Resetting
 1827   -3099.6569271399      3.10e-05  Line search: understep
  GDM::   1816 failed line searches.  Resetting
 1828   -3099.6569271399      3.10e-05  Line search: understep
  GDM::   1817 failed line searches.  Resetting
 1829   -3099.6569271399      3.10e-05  Line search: understep
  GDM::   1818 failed line searches.  Resetting
 1830   -3099.6569271399      3.10e-05  Line search: understep
  GDM::   1819 failed line searches.  Resetting
 1831   -3099.6569271399      3.10e-05  Line search: understep
  GDM::   1820 failed line searches.  Resetting
 1832   -3099.6569271399      3.10e-05  Line search: understep
  GDM::   1821 failed line searches.  Resetting
 1833   -3099.6569271399      3.10e-05  Line search: understep
  GDM::   1822 failed line searches.  Resetting
 1834   -3099.6569271399      3.10e-05  Line search: understep
  GDM::   1823 failed line searches.  Resetting
 1835   -3099.6569271399      3.10e-05  Line search: understep
  GDM::   1824 failed line searches.  Resetting
 1836   -3099.6569271399      3.10e-05  Line search: understep
  GDM::   1825 failed line searches.  Resetting
 1837   -3099.6569271399      3.10e-05  Line search: understep
  GDM::   1826 failed line searches.  Resetting
 1838   -3099.6569271399      3.10e-05  Line search: understep
  GDM::   1827 failed line searches.  Resetting
 1839   -3099.6569271399      3.10e-05  Line search: understep
  GDM::   1828 failed line searches.  Resetting
 1840   -3099.6569271399      3.10e-05  Line search: understep
  GDM::   1829 failed line searches.  Resetting
 1841   -3099.6569271399      3.10e-05  Line search: understep
  GDM::   1830 failed line searches.  Resetting
 1842   -3099.6569271399      3.10e-05  Line search: understep
  GDM::   1831 failed line searches.  Resetting
 1843   -3099.6569271399      3.10e-05  Line search: understep
  GDM::   1832 failed line searches.  Resetting
 1844   -3099.6569271399      3.10e-05  Line search: understep
  GDM::   1833 failed line searches.  Resetting
 1845   -3099.6569271399      3.10e-05  Line search: understep
  GDM::   1834 failed line searches.  Resetting
 1846   -3099.6569271399      3.10e-05  Line search: understep
  GDM::   1835 failed line searches.  Resetting
 1847   -3099.6569271399      3.10e-05  Line search: understep
  GDM::   1836 failed line searches.  Resetting
 1848   -3099.6569271399      3.10e-05  Line search: understep
  GDM::   1837 failed line searches.  Resetting
 1849   -3099.6569271399      3.10e-05  Line search: understep
  GDM::   1838 failed line searches.  Resetting
 1850   -3099.6569271399      3.10e-05  Line search: understep
  GDM::   1839 failed line searches.  Resetting
 1851   -3099.6569271399      3.10e-05  Line search: understep
  GDM::   1840 failed line searches.  Resetting
 1852   -3099.6569271399      3.10e-05  Line search: understep
  GDM::   1841 failed line searches.  Resetting
 1853   -3099.6569271399      3.10e-05  Line search: understep
  GDM::   1842 failed line searches.  Resetting
 1854   -3099.6569271399      3.10e-05  Line search: understep
  GDM::   1843 failed line searches.  Resetting
 1855   -3099.6569271399      3.10e-05  Line search: understep
  GDM::   1844 failed line searches.  Resetting
 1856   -3099.6569271399      3.10e-05  Line search: understep
  GDM::   1845 failed line searches.  Resetting
 1857   -3099.6569271399      3.10e-05  Line search: understep
  GDM::   1846 failed line searches.  Resetting
 1858   -3099.6569271399      3.10e-05  Line search: understep
  GDM::   1847 failed line searches.  Resetting
 1859   -3099.6569271399      3.10e-05  Line search: understep
  GDM::   1848 failed line searches.  Resetting
 1860   -3099.6569271399      3.10e-05  Line search: understep
  GDM::   1849 failed line searches.  Resetting
 1861   -3099.6569271399      3.10e-05  Line search: understep
  GDM::   1850 failed line searches.  Resetting
 1862   -3099.6569271399      3.10e-05  Line search: understep
  GDM::   1851 failed line searches.  Resetting
 1863   -3099.6569271399      3.10e-05  Line search: understep
  GDM::   1852 failed line searches.  Resetting
 1864   -3099.6569271399      3.10e-05  Line search: understep
  GDM::   1853 failed line searches.  Resetting
 1865   -3099.6569271399      3.10e-05  Line search: understep
  GDM::   1854 failed line searches.  Resetting
 1866   -3099.6569271399      3.10e-05  Line search: understep
  GDM::   1855 failed line searches.  Resetting
 1867   -3099.6569271399      3.10e-05  Line search: understep
  GDM::   1856 failed line searches.  Resetting
 1868   -3099.6569271399      3.10e-05  Line search: understep
  GDM::   1857 failed line searches.  Resetting
 1869   -3099.6569271399      3.10e-05  Line search: understep
  GDM::   1858 failed line searches.  Resetting
 1870   -3099.6569271399      3.10e-05  Line search: understep
  GDM::   1859 failed line searches.  Resetting
 1871   -3099.6569271399      3.10e-05  Line search: understep
  GDM::   1860 failed line searches.  Resetting
 1872   -3099.6569271399      3.10e-05  Line search: understep
  GDM::   1861 failed line searches.  Resetting
 1873   -3099.6569271399      3.10e-05  Line search: understep
  GDM::   1862 failed line searches.  Resetting
 1874   -3099.6569271399      3.10e-05  Line search: understep
  GDM::   1863 failed line searches.  Resetting
 1875   -3099.6569271399      3.10e-05  Line search: understep
  GDM::   1864 failed line searches.  Resetting
 1876   -3099.6569271399      3.10e-05  Line search: understep
  GDM::   1865 failed line searches.  Resetting
 1877   -3099.6569271399      3.10e-05  Line search: understep
  GDM::   1866 failed line searches.  Resetting
 1878   -3099.6569271399      3.10e-05  Line search: understep
  GDM::   1867 failed line searches.  Resetting
 1879   -3099.6569271399      3.10e-05  Line search: understep
  GDM::   1868 failed line searches.  Resetting
 1880   -3099.6569271399      3.10e-05  Line search: understep
  GDM::   1869 failed line searches.  Resetting
 1881   -3099.6569271399      3.10e-05  Line search: understep
  GDM::   1870 failed line searches.  Resetting
 1882   -3099.6569271399      3.10e-05  Line search: understep
  GDM::   1871 failed line searches.  Resetting
 1883   -3099.6569271399      3.10e-05  Line search: understep
  GDM::   1872 failed line searches.  Resetting
 1884   -3099.6569271399      3.10e-05  Line search: understep
  GDM::   1873 failed line searches.  Resetting
 1885   -3099.6569271399      3.10e-05  Line search: understep
  GDM::   1874 failed line searches.  Resetting
 1886   -3099.6569271399      3.10e-05  Line search: understep
  GDM::   1875 failed line searches.  Resetting
 1887   -3099.6569271399      3.10e-05  Line search: understep
  GDM::   1876 failed line searches.  Resetting
 1888   -3099.6569271399      3.10e-05  Line search: understep
  GDM::   1877 failed line searches.  Resetting
 1889   -3099.6569271399      3.10e-05  Line search: understep
  GDM::   1878 failed line searches.  Resetting
 1890   -3099.6569271399      3.10e-05  Line search: understep
  GDM::   1879 failed line searches.  Resetting
 1891   -3099.6569271399      3.10e-05  Line search: understep
  GDM::   1880 failed line searches.  Resetting
 1892   -3099.6569271399      3.10e-05  Line search: understep
  GDM::   1881 failed line searches.  Resetting
 1893   -3099.6569271399      3.10e-05  Line search: understep
  GDM::   1882 failed line searches.  Resetting
 1894   -3099.6569271399      3.10e-05  Line search: understep
  GDM::   1883 failed line searches.  Resetting
 1895   -3099.6569271399      3.10e-05  Line search: understep
  GDM::   1884 failed line searches.  Resetting
 1896   -3099.6569271399      3.10e-05  Line search: understep
  GDM::   1885 failed line searches.  Resetting
 1897   -3099.6569271399      3.10e-05  Line search: understep
  GDM::   1886 failed line searches.  Resetting
 1898   -3099.6569271399      3.10e-05  Line search: understep
  GDM::   1887 failed line searches.  Resetting
 1899   -3099.6569271399      3.10e-05  Line search: understep
  GDM::   1888 failed line searches.  Resetting
 1900   -3099.6569271399      3.10e-05  Line search: understep
  GDM::   1889 failed line searches.  Resetting
 1901   -3099.6569271399      3.10e-05  Line search: understep
  GDM::   1890 failed line searches.  Resetting
 1902   -3099.6569271399      3.10e-05  Line search: understep
  GDM::   1891 failed line searches.  Resetting
 1903   -3099.6569271399      3.10e-05  Line search: understep
  GDM::   1892 failed line searches.  Resetting
 1904   -3099.6569271399      3.10e-05  Line search: understep
  GDM::   1893 failed line searches.  Resetting
 1905   -3099.6569271399      3.10e-05  Line search: understep
  GDM::   1894 failed line searches.  Resetting
 1906   -3099.6569271399      3.10e-05  Line search: understep
  GDM::   1895 failed line searches.  Resetting
 1907   -3099.6569271399      3.10e-05  Line search: understep
  GDM::   1896 failed line searches.  Resetting
 1908   -3099.6569271399      3.10e-05  Line search: understep
  GDM::   1897 failed line searches.  Resetting
 1909   -3099.6569271399      3.10e-05  Line search: understep
  GDM::   1898 failed line searches.  Resetting
 1910   -3099.6569271399      3.10e-05  Line search: understep
  GDM::   1899 failed line searches.  Resetting
 1911   -3099.6569271399      3.10e-05  Line search: understep
  GDM::   1900 failed line searches.  Resetting
 1912   -3099.6569271399      3.10e-05  Line search: understep
  GDM::   1901 failed line searches.  Resetting
 1913   -3099.6569271399      3.10e-05  Line search: understep
  GDM::   1902 failed line searches.  Resetting
 1914   -3099.6569271399      3.10e-05  Line search: understep
  GDM::   1903 failed line searches.  Resetting
 1915   -3099.6569271399      3.10e-05  Line search: understep
  GDM::   1904 failed line searches.  Resetting
 1916   -3099.6569271399      3.10e-05  Line search: understep
  GDM::   1905 failed line searches.  Resetting
 1917   -3099.6569271399      3.10e-05  Line search: understep
  GDM::   1906 failed line searches.  Resetting
 1918   -3099.6569271399      3.10e-05  Line search: understep
  GDM::   1907 failed line searches.  Resetting
 1919   -3099.6569271399      3.10e-05  Line search: understep
  GDM::   1908 failed line searches.  Resetting
 1920   -3099.6569271399      3.10e-05  Line search: understep
  GDM::   1909 failed line searches.  Resetting
 1921   -3099.6569271399      3.10e-05  Line search: understep
  GDM::   1910 failed line searches.  Resetting
 1922   -3099.6569271399      3.10e-05  Line search: understep
  GDM::   1911 failed line searches.  Resetting
 1923   -3099.6569271399      3.10e-05  Line search: understep
  GDM::   1912 failed line searches.  Resetting
 1924   -3099.6569271399      3.10e-05  Line search: understep
  GDM::   1913 failed line searches.  Resetting
 1925   -3099.6569271399      3.10e-05  Line search: understep
  GDM::   1914 failed line searches.  Resetting
 1926   -3099.6569271399      3.10e-05  Line search: understep
  GDM::   1915 failed line searches.  Resetting
 1927   -3099.6569271399      3.10e-05  Line search: understep
  GDM::   1916 failed line searches.  Resetting
 1928   -3099.6569271399      3.10e-05  Line search: understep
  GDM::   1917 failed line searches.  Resetting
 1929   -3099.6569271399      3.10e-05  Line search: understep
  GDM::   1918 failed line searches.  Resetting
 1930   -3099.6569271399      3.10e-05  Line search: understep
  GDM::   1919 failed line searches.  Resetting
 1931   -3099.6569271399      3.10e-05  Line search: understep
  GDM::   1920 failed line searches.  Resetting
 1932   -3099.6569271399      3.10e-05  Line search: understep
  GDM::   1921 failed line searches.  Resetting
 1933   -3099.6569271399      3.10e-05  Line search: understep
  GDM::   1922 failed line searches.  Resetting
 1934   -3099.6569271399      3.10e-05  Line search: understep
  GDM::   1923 failed line searches.  Resetting
 1935   -3099.6569271399      3.10e-05  Line search: understep
  GDM::   1924 failed line searches.  Resetting
 1936   -3099.6569271399      3.10e-05  Line search: understep
  GDM::   1925 failed line searches.  Resetting
 1937   -3099.6569271399      3.10e-05  Line search: understep
  GDM::   1926 failed line searches.  Resetting
 1938   -3099.6569271399      3.10e-05  Line search: understep
  GDM::   1927 failed line searches.  Resetting
 1939   -3099.6569271399      3.10e-05  Line search: understep
  GDM::   1928 failed line searches.  Resetting
 1940   -3099.6569271399      3.10e-05  Line search: understep
  GDM::   1929 failed line searches.  Resetting
 1941   -3099.6569271399      3.10e-05  Line search: understep
  GDM::   1930 failed line searches.  Resetting
 1942   -3099.6569271399      3.10e-05  Line search: understep
  GDM::   1931 failed line searches.  Resetting
 1943   -3099.6569271399      3.10e-05  Line search: understep
  GDM::   1932 failed line searches.  Resetting
 1944   -3099.6569271399      3.10e-05  Line search: understep
  GDM::   1933 failed line searches.  Resetting
 1945   -3099.6569271399      3.10e-05  Line search: understep
  GDM::   1934 failed line searches.  Resetting
 1946   -3099.6569271399      3.10e-05  Line search: understep
  GDM::   1935 failed line searches.  Resetting
 1947   -3099.6569271399      3.10e-05  Line search: understep
  GDM::   1936 failed line searches.  Resetting
 1948   -3099.6569271399      3.10e-05  Line search: understep
  GDM::   1937 failed line searches.  Resetting
 1949   -3099.6569271399      3.10e-05  Line search: understep
  GDM::   1938 failed line searches.  Resetting
 1950   -3099.6569271399      3.10e-05  Line search: understep
  GDM::   1939 failed line searches.  Resetting
 1951   -3099.6569271399      3.10e-05  Line search: understep
  GDM::   1940 failed line searches.  Resetting
 1952   -3099.6569271399      3.10e-05  Line search: understep
  GDM::   1941 failed line searches.  Resetting
 1953   -3099.6569271399      3.10e-05  Line search: understep
  GDM::   1942 failed line searches.  Resetting
 1954   -3099.6569271399      3.10e-05  Line search: understep
  GDM::   1943 failed line searches.  Resetting
 1955   -3099.6569271399      3.10e-05  Line search: understep
  GDM::   1944 failed line searches.  Resetting
 1956   -3099.6569271399      3.10e-05  Line search: understep
  GDM::   1945 failed line searches.  Resetting
 1957   -3099.6569271399      3.10e-05  Line search: understep
  GDM::   1946 failed line searches.  Resetting
 1958   -3099.6569271399      3.10e-05  Line search: understep
  GDM::   1947 failed line searches.  Resetting
 1959   -3099.6569271399      3.10e-05  Line search: understep
  GDM::   1948 failed line searches.  Resetting
 1960   -3099.6569271399      3.10e-05  Line search: understep
  GDM::   1949 failed line searches.  Resetting
 1961   -3099.6569271399      3.10e-05  Line search: understep
  GDM::   1950 failed line searches.  Resetting
 1962   -3099.6569271399      3.10e-05  Line search: understep
  GDM::   1951 failed line searches.  Resetting
 1963   -3099.6569271399      3.10e-05  Line search: understep
  GDM::   1952 failed line searches.  Resetting
 1964   -3099.6569271399      3.10e-05  Line search: understep
  GDM::   1953 failed line searches.  Resetting
 1965   -3099.6569271399      3.10e-05  Line search: understep
  GDM::   1954 failed line searches.  Resetting
 1966   -3099.6569271399      3.10e-05  Line search: understep
  GDM::   1955 failed line searches.  Resetting
 1967   -3099.6569271399      3.10e-05  Line search: understep
  GDM::   1956 failed line searches.  Resetting
 1968   -3099.6569271399      3.10e-05  Line search: understep
  GDM::   1957 failed line searches.  Resetting
 1969   -3099.6569271399      3.10e-05  Line search: understep
  GDM::   1958 failed line searches.  Resetting
 1970   -3099.6569271399      3.10e-05  Line search: understep
  GDM::   1959 failed line searches.  Resetting
 1971   -3099.6569271399      3.10e-05  Line search: understep
  GDM::   1960 failed line searches.  Resetting
 1972   -3099.6569271399      3.10e-05  Line search: understep
  GDM::   1961 failed line searches.  Resetting
 1973   -3099.6569271399      3.10e-05  Line search: understep
  GDM::   1962 failed line searches.  Resetting
 1974   -3099.6569271399      3.10e-05  Line search: understep
  GDM::   1963 failed line searches.  Resetting
 1975   -3099.6569271399      3.10e-05  Line search: understep
  GDM::   1964 failed line searches.  Resetting
 1976   -3099.6569271399      3.10e-05  Line search: understep
  GDM::   1965 failed line searches.  Resetting
 1977   -3099.6569271399      3.10e-05  Line search: understep
  GDM::   1966 failed line searches.  Resetting
 1978   -3099.6569271399      3.10e-05  Line search: understep
  GDM::   1967 failed line searches.  Resetting
 1979   -3099.6569271399      3.10e-05  Line search: understep
  GDM::   1968 failed line searches.  Resetting
 1980   -3099.6569271399      3.10e-05  Line search: understep
  GDM::   1969 failed line searches.  Resetting
 1981   -3099.6569271399      3.10e-05  Line search: understep
  GDM::   1970 failed line searches.  Resetting
 1982   -3099.6569271399      3.10e-05  Line search: understep
  GDM::   1971 failed line searches.  Resetting
 1983   -3099.6569271399      3.10e-05  Line search: understep
  GDM::   1972 failed line searches.  Resetting
 1984   -3099.6569271399      3.10e-05  Line search: understep
  GDM::   1973 failed line searches.  Resetting
 1985   -3099.6569271399      3.10e-05  Line search: understep
  GDM::   1974 failed line searches.  Resetting
 1986   -3099.6569271399      3.10e-05  Line search: understep
  GDM::   1975 failed line searches.  Resetting
 1987   -3099.6569271399      3.10e-05  Line search: understep
  GDM::   1976 failed line searches.  Resetting
 1988   -3099.6569271399      3.10e-05  Line search: understep
  GDM::   1977 failed line searches.  Resetting
 1989   -3099.6569271399      3.10e-05  Line search: understep
  GDM::   1978 failed line searches.  Resetting
 1990   -3099.6569271399      3.10e-05  Line search: understep
  GDM::   1979 failed line searches.  Resetting
 1991   -3099.6569271399      3.10e-05  Line search: understep
  GDM::   1980 failed line searches.  Resetting
 1992   -3099.6569271399      3.10e-05  Line search: understep
  GDM::   1981 failed line searches.  Resetting
 1993   -3099.6569271399      3.10e-05  Line search: understep
  GDM::   1982 failed line searches.  Resetting
 1994   -3099.6569271399      3.10e-05  Line search: understep
  GDM::   1983 failed line searches.  Resetting
 1995   -3099.6569271399      3.10e-05  Line search: understep
  GDM::   1984 failed line searches.  Resetting
 1996   -3099.6569271399      3.10e-05  Line search: understep
  GDM::   1985 failed line searches.  Resetting
 1997   -3099.6569271399      3.10e-05  Line search: understep
  GDM::   1986 failed line searches.  Resetting
 1998   -3099.6569271399      3.10e-05  Line search: understep
  GDM::   1987 failed line searches.  Resetting
 1999   -3099.6569271399      3.10e-05  Line search: understep
  GDM::   1988 failed line searches.  Resetting
 2000   -3099.6569271399      3.10e-05  Line search: understep
gen_scfman_exception: SCF failed to converge

 Q-Chem fatal error occurred in module libgscf/gen_scfman/gen_scfman_main.C, line 164:

 Error in gen_scfman


 Please submit a crash report at q-chem.com/reporter 
 
 
