                  Welcome to Q-Chem
     A Quantum Leap Into The Future Of Chemistry


 Q-Chem 5.2 (devel), Q-Chem, Inc., Pleasanton, CA (2019)

 Yihan Shao,  Zhengting Gan,  E. Epifanovsky,  A. T. B. Gilbert,  M. Wormit,  
 J. Kussmann,  A. W. Lange,  A. Behn,  Jia Deng,  Xintian Feng,  D. Ghosh,  
 M. Goldey,  P. R. Horn,  L. D. Jacobson,  I. Kaliman,  T. Kus,  A. Landau,  
 Jie Liu,  E. I. Proynov,  R. M. Richard,  R. P. Steele,  E. J. Sundstrom,  
 H. L. Woodcock III,  P. M. Zimmerman,  D. Zuev,  B. Albrecht,  E. Alguire,  
 S. A. Baeppler,  D. Barton,  Z. Benda,  Y. A. Bernard,  E. J. Berquist,  
 K. B. Bravaya,  H. Burton,  D. Casanova,  Chun-Min Chang,  Yunqing Chen,  
 A. Chien,  K. D. Closser,  M. P. Coons,  S. Coriani,  S. Dasgupta,  
 A. L. Dempwolff,  M. Diedenhofen,  Hainam Do,  R. G. Edgar,  Po-Tung Fang,  
 S. Faraji,  S. Fatehi,  Qingguo Feng,  K. D. Fenk,  J. Fosso-Tande,  
 J. Gayvert,  Qinghui Ge,  A. Ghysels,  G. Gidofalvi,  J. Gomes,  
 J. Gonthier,  A. Gunina,  D. Hait,  M. W. D. Hanson-Heine,  
 P. H. P. Harbach,  A. W. Hauser,  M. F. Herbst,  J. E. Herr,  
 E. G. Hohenstein,  Z. C. Holden,  Kerwin Hui,  B. C. Huynh,  T.-C. Jagau,  
 Hyunjun Ji,  B. Kaduk,  K. Khistyaev,  Jaehoon Kim,  P. Klunzinger,  K. Koh,  
 D. Kosenkov,  L. Koulias,  T. Kowalczyk,  C. M. Krauter,  A. Kunitsa,  
 Ka Un Lao,  A. Laurent,  K. V. Lawler,  Joonho Lee,  D. Lefrancois,  
 S. Lehtola,  D. S. Levine,  Yi-Pei Li,  You-Sheng Lin,  Fenglai Liu,  
 E. Livshits,  A. Luenser,  P. Manohar,  E. Mansoor,  S. F. Manzer,  
 Shan-Ping Mao,  Yuezhi Mao,  N. Mardirossian,  A. V. Marenich,  
 T. Markovich,  L. A. Martinez-Martinez,  S. A. Maurer,  N. J. Mayhall,  
 S. C. McKenzie,  J.-M. Mewes,  P. Morgante,  A. F. Morrison,  
 J. W. Mullinax,  K. Nanda,  T. S. Nguyen-Beck,  R. Olivares-Amaya,  
 J. A. Parkhill,  Zheng Pei,  T. M. Perrine,  F. Plasser,  P. Pokhilko,  
 S. Prager,  A. Prociuk,  E. Ramos,  D. R. Rehn,  F. Rob,  M. Scheurer,  
 M. Schneider,  N. Sergueev,  S. M. Sharada,  S. Sharma,  D. W. Small,  
 T. Stauch,  T. Stein,  Yu-Chuan Su,  A. J. W. Thom,  A. Tkatchenko,  
 T. Tsuchimochi,  N. M. Tubman,  L. Vogt,  M. L. Vidal,  O. Vydrov,  
 M. A. Watson,  J. Wenzel,  M. de Wergifosse,  T. A. Wesolowski,  A. White,  
 J. Witte,  A. Yamada,  Jun Yang,  K. Yao,  S. Yeganeh,  S. R. Yost,  
 Zhi-Qiang You,  A. Zech,  Igor Ying Zhang,  Xing Zhang,  Yan Zhao,  
 Ying Zhu,  B. R. Brooks,  G. K. L. Chan,  C. J. Cramer,  M. S. Gordon,  
 W. J. Hehre,  A. Klamt,  M. W. Schmidt,  C. D. Sherrill,  D. G. Truhlar,  
 A. Aspuru-Guzik,  R. Baer,  A. T. Bell,  N. A. Besley,  Jeng-Da Chai,  
 A. E. DePrince, III,  R. A. DiStasio Jr.,  A. Dreuw,  B. D. Dunietz,  
 T. R. Furlani,  Chao-Ping Hsu,  Yousung Jung,  Jing Kong,  D. S. Lambrecht,  
 WanZhen Liang,  C. Ochsenfeld,  V. A. Rassolov,  L. V. Slipchenko,  
 J. E. Subotnik,  T. Van Voorhis,  J. M. Herbert,  A. I. Krylov,  
 P. M. W. Gill,  M. Head-Gordon

 Contributors to earlier versions of Q-Chem not listed above: 
 R. D. Adamson,  B. Austin,  J. Baker,  G. J. O. Beran,  K. Brandhorst,  
 S. T. Brown,  E. F. C. Byrd,  A. K. Chakraborty,  C.-L. Cheng,  
 Siu Hung Chien,  D. M. Chipman,  D. L. Crittenden,  H. Dachsel,  
 R. J. Doerksen,  A. D. Dutoi,  L. Fusti-Molnar,  W. A. Goddard III,  
 A. Golubeva-Zadorozhnaya,  S. R. Gwaltney,  G. Hawkins,  A. Heyden,  
 S. Hirata,  G. Kedziora,  F. J. Keil,  C. Kelley,  Jihan Kim,  R. A. King,  
 R. Z. Khaliullin,  P. P. Korambath,  W. Kurlancheek,  A. M. Lee,  M. S. Lee,  
 S. V. Levchenko,  Ching Yeh Lin,  D. Liotard,  R. C. Lochan,  I. Lotan,  
 P. E. Maslen,  N. Nair,  D. P. O'Neill,  D. Neuhauser,  E. Neuscamman,  
 C. M. Oana,  R. Olson,  B. Peters,  R. Peverati,  P. A. Pieniazek,  
 Y. M. Rhee,  J. Ritchie,  M. A. Rohrdanz,  E. Rosta,  N. J. Russ,  
 H. F. Schaefer III,  N. E. Schultz,  N. Shenvi,  A. C. Simmonett,  A. Sodt,  
 D. Stuck,  K. S. Thanthiriwatte,  V. Vanovschi,  Tao Wang,  A. Warshel,  
 C. F. Williams,  Q. Wu,  X. Xu,  W. Zhang

 Please cite Q-Chem as follows:
 Y. Shao et al., Mol. Phys. 113, 184-215 (2015)
 DOI: 10.1080/00268976.2014.952696

 Q-Chem 5.2.0 for Intel X86 EM64T Linux

 Parts of Q-Chem use Armadillo 8.300.2 (Tropical Shenanigans).
 http://arma.sourceforge.net/

 Q-Chem begins on Thu Dec  8 16:51:48 2022  

Host: 
0

     Scratch files written to /lscratch/ccprak16/ni-s2-cn-1_471372.Meister/qchem1881//
NAlpha2: 136
NElect   136
Mult     1

Checking the input file for inconsistencies... 	...done.

--------------------------------------------------------------
User input:
--------------------------------------------------------------
$molecule
-1 1
  Ni   -1.5930713    2.4341447    0.1780128
  S    0.3546681    3.6131072    0.0191196
  S   -0.1936419    0.7666641    0.8321077
  S   -3.0012060    4.0979065   -0.4784166
  S   -3.5386599    1.2478095    0.3317421
  C    0.9677379    2.1068762    0.3607794
  C    2.3979136    1.7838173    0.0923945
  C   -4.1639185    2.7183352   -0.1218754
  C   -5.6422470    2.9365918   -0.1424345
  H    2.9493652    2.6797735   -0.2616364
  H    2.4466032    0.9979668   -0.6900992
  H    2.8685028    1.4069290    1.0229635
  H   -5.8739657    3.9845537   -0.4241038
  H   -6.0570366    2.7362755    0.8673928
  H   -6.1188696    2.2529800   -0.8760391
  C   -1.7860211    3.0177721    2.1130065
  N   -1.8824257    3.3553657    3.2154341
$end

$rem
jobtype opt
method hf
basis 6-31+g*
scf_convergence 5
max_scf_cycles 2000
scf_algorithm diis_gdm
threads 8
mem_total 100000
mem_static 10000
!QSYS wt=24h
$end
--------------------------------------------------------------
 ----------------------------------------------------------------
             Standard Nuclear Orientation (Angstroms)
    I     Atom           X                Y                Z
 ----------------------------------------------------------------
    1      Ni      0.0237955925    -0.0042847891     0.2177750288
    2      S       1.7829890950    -1.4522436696     0.0853299577
    3      S       1.6712443306     1.5563013984     0.0865586353
    4      S      -1.6319117088    -1.5607048443     0.3520738058
    5      S      -1.7326062645     1.4489629438     0.3572829086
    6      C       2.6117330341    -0.0158379243     0.1913480801
    7      C       4.0528126512     0.0100089807     0.5713763880
    8      C      -2.5755831270     0.0177296821     0.3684340278
    9      C      -4.0682192285     0.0196941687     0.2939532691
   10      H       4.4566312572    -1.0188866374     0.6737414112
   11      H       4.1573804821     0.5366804520     1.5429271104
   12      H       4.6263362671     0.5539089507    -0.2062489294
   13      H      -4.4548445448    -1.0200356448     0.2667857530
   14      H      -4.3890868160     0.5461541340    -0.6289834050
   15      H      -4.4938580122     0.5389278249     1.1782032005
   16      C      -0.1249540295    -0.0031125152    -1.8070517198
   17      N      -0.1970026088    -0.0092460842    -2.9617730197
 ----------------------------------------------------------------
 Molecular Point Group                 C1    NOp =  1
 Largest Abelian Subgroup              C1    NOp =  1
 Nuclear Repulsion Energy =        1430.35966360 hartrees
 There are       68 alpha and       68 beta electrons
 Requested basis set is 6-31+G(d)
 There are 74 shells and 254 basis functions

 Total QAlloc Memory Limit 100000 MB
 Mega-Array Size      9776 MB
 MEM_STATIC part     10000 MB
 A cutoff of  1.0D-09 yielded   2110 shell pairs
 There are     27720 function pairs (     28449 Cartesian)
 Smallest overlap matrix eigenvalue = 1.38E-05

 Q-Chem warning in module stvman/mkSTV.C, line 318:

 Overlap eigenvalue is smaller than square root of threshold
 Use THRESH >= 12 to get rid of this warning


 Scale SEOQF with 1.000000e-01/1.000000e-01/1.000000e-01

 Standard Electronic Orientation quadrupole field applied
 Nucleus-field energy     =     0.0000000213 hartrees
 Guess from superposition of atomic densities
 Warning:  Energy on first SCF cycle will be non-variational
 SAD guess density has 134.947504 electrons

 -----------------------------------------------------------------------
  General SCF calculation program by
  Eric Jon Sundstrom, Paul Horn, Yuezhi Mao, Dmitri Zuev, Alec White,
  David Stuck, Shaama M.S., Shane Yost, Joonho Lee, David Small,
  Daniel Levine, Susi Lehtola, Hugh Burton, Evgeny Epifanovsky
 -----------------------------------------------------------------------
 Hartree-Fock
 using 8 threads for integral computing
 -------------------------------------------------------
 OpenMP Integral computing Module                
 Release: version 2.0, May 2017, Q-Chem Inc. Pleasanton 
 -------------------------------------------------------
 A restricted SCF calculation will be
 performed using DIIS, GDM
 SCF converges when RMS gradient is below 1.0e-05
 ---------------------------------------
  Cycle       Energy         DIIS error
 ---------------------------------------
    1   -3345.7948193073      1.06e-01  
    2   -3343.5189760384      8.46e-03  Done DIIS. Switching to GDM
 ---------------------------------------
  Cycle       Energy        RMS Gradient
 ---------------------------------------
    1   -3343.5189760384      1.26e-01   Descent step
    2   -3343.7839748171      6.14e-02   Dog-leg BFGS step
    3   -3343.8834936575      3.40e-02   Normal BFGS step
    4   -3343.8973151741      1.49e-02   Normal BFGS step
    5   -3343.9011325414      3.62e-03   Normal BFGS step
    6   -3343.9017382659      1.83e-03   Normal BFGS step
    7   -3343.9018988852      1.65e-03   Normal BFGS step
    8   -3343.9021692801      1.96e-03   Normal BFGS step
    9   -3343.9026583276      2.84e-03   Normal BFGS step
   10   -3343.9043987096      7.15e-03   Dog-leg BFGS step
   11   -3343.9085949623      8.10e-03   Dog-leg BFGS step
   12   -3343.9153723141      7.24e-03   Normal BFGS step
   13   -3343.9146880925      1.50e-02  Line search: overstep
   14   -3343.9180328688      6.30e-03   Dog-leg BFGS step
   15   -3343.9209802484      7.64e-03   Normal BFGS step
   16   -3343.9239850412      6.09e-03   Normal BFGS step
   17   -3343.9272535051      3.53e-03   Normal BFGS step
   18   -3343.9295254489      4.21e-03   Normal BFGS step
   19   -3343.9316362885      3.82e-03   Normal BFGS step
   20   -3343.9327690360      2.70e-03   Normal BFGS step
   21   -3343.9331408443      8.84e-04   Normal BFGS step
   22   -3343.9333160471      9.54e-04   Normal BFGS step
   23   -3343.9334390315      9.36e-04   Normal BFGS step
   24   -3343.9334811432      5.07e-04   Normal BFGS step
   25   -3343.9334959939      4.56e-04   Normal BFGS step
   26   -3343.9335021503      4.10e-04   Normal BFGS step
   27   -3343.9335071117      3.47e-04   Normal BFGS step
   28   -3343.9335152798      2.54e-04   Normal BFGS step
   29   -3343.9335199465      2.79e-04   Normal BFGS step
   30   -3343.9335225352      1.60e-04   Normal BFGS step
   31   -3343.9335231869      4.53e-05   Normal BFGS step
   32   -3343.9335233313      1.84e-05   Normal BFGS step
   33   -3343.9335234197      1.41e-05   Normal BFGS step
   34   -3343.9335235022      1.28e-05   Normal BFGS step
   35   -3343.9335236166      1.16e-05   Normal BFGS step
   36   -3343.9335237365      9.13e-06  Convergence criterion met
 ---------------------------------------
 SCF time:   CPU 328.76s  wall 41.00s 
 SCF   energy in the final basis set =    -3343.9335237365
 Total energy in the final basis set =    -3343.9335237365
 
 --------------------------------------------------------------
 
                    Orbital Energies (a.u.)
 --------------------------------------------------------------
 
 Alpha MOs
 -- Occupied --
******** -91.8110 -91.8106 -91.7979 -91.7925 -37.7412 -32.7887 -32.7745
-32.7448 -15.3430 -11.2457 -11.2437 -11.1529 -11.1509 -11.0125  -8.8248
 -8.8242  -8.8081  -8.8032  -6.5074  -6.5069  -6.5053  -6.5047  -6.5047
 -6.5043  -6.4907  -6.4885  -6.4881  -6.4859  -6.4836  -6.4830  -4.6917
 -3.1033  -3.0931  -3.0681  -1.0043  -0.9996  -0.9835  -0.8610  -0.8548
 -0.7983  -0.7946  -0.6074  -0.5867  -0.5418  -0.4990  -0.4963  -0.4933
 -0.4923  -0.4717  -0.4673  -0.4470  -0.4440  -0.4376  -0.4012  -0.3831
 -0.3546  -0.3346  -0.3258  -0.3017  -0.2627  -0.2572  -0.2531  -0.2415
 -0.2287  -0.2066  -0.2005  -0.1882
 -- Virtual --
  0.1494   0.1546   0.1597   0.1696   0.1787   0.1851   0.1867   0.1978
  0.2025   0.2047   0.2054   0.2106   0.2265   0.2317   0.2354   0.2388
  0.2471   0.2617   0.2646   0.2713   0.2770   0.2848   0.2992   0.3046
  0.3078   0.3102   0.3296   0.3315   0.3365   0.3405   0.3459   0.3600
  0.3609   0.3670   0.3745   0.3821   0.3852   0.3894   0.3986   0.4040
  0.4097   0.4176   0.4236   0.4359   0.4420   0.4441   0.4528   0.4604
  0.4654   0.4777   0.4818   0.4973   0.5031   0.5098   0.5177   0.5458
  0.5505   0.5732   0.5764   0.5913   0.6013   0.6345   0.6939   0.7044
  0.7073   0.7899   0.8044   0.8243   0.8433   0.8474   0.8643   0.8701
  0.8758   0.8878   0.8911   0.9064   0.9158   0.9547   0.9782   0.9933
  1.0029   1.0129   1.0199   1.0360   1.0382   1.0520   1.0674   1.0697
  1.0858   1.0911   1.0966   1.1056   1.1154   1.1187   1.1227   1.1332
  1.1430   1.1515   1.1770   1.2522   1.2590   1.2607   1.2730   1.2913
  1.2990   1.3127   1.3255   1.3520   1.3661   1.3692   1.3761   1.3823
  1.3946   1.4178   1.4257   1.4488   1.4586   1.4804   1.4922   1.5019
  1.5121   1.5220   1.5312   1.5603   1.5886   1.5977   1.6155   1.6650
  1.7557   1.7968   1.8371   1.8610   1.8899   1.9864   2.0519   2.0645
  2.0653   2.0836   2.1493   2.1826   2.2373   2.2482   2.2533   2.3722
  2.3766   2.4024   2.4152   2.4545   2.5002   2.5156   2.5231   2.5288
  2.5332   2.6030   2.6296   2.6434   2.6889   2.7159   2.7232   2.7386
  2.7627   2.7745   2.7897   2.8065   2.8326   2.8581   2.8834   2.9043
  2.9128   3.0994   3.1077   3.2442   3.2479   3.4580   3.8043   4.4698
  4.4906   4.5368   4.5392   4.7135   4.7356   4.7919   4.8983   4.9078
  5.0225  33.8611
 --------------------------------------------------------------
 
          Ground-State Mulliken Net Atomic Charges

     Atom                 Charge (a.u.)
  ----------------------------------------
      1 Ni                    1.264968
      2 S                    -0.283621
      3 S                    -0.399933
      4 S                    -0.411288
      5 S                    -0.242634
      6 C                     0.049993
      7 C                    -0.737360
      8 C                     0.186664
      9 C                    -0.793746
     10 H                     0.209210
     11 H                     0.222154
     12 H                     0.215354
     13 H                     0.214037
     14 H                     0.227381
     15 H                     0.209570
     16 C                    -0.348036
     17 N                    -0.582713
  ----------------------------------------
  Sum of atomic charges =    -1.000000

 -----------------------------------------------------------------
                    Cartesian Multipole Moments
 -----------------------------------------------------------------
    Charge (ESU x 10^10)
                -4.8032
    Dipole Moment (Debye)
         X       0.4069      Y       0.0320      Z       7.4414
       Tot       7.4526
    Quadrupole Moments (Debye-Ang)
        XX    -102.8378     XY      -3.1874     YY    -122.7731
        XZ       0.0616     YZ       0.2626     ZZ    -137.0156
    Octopole Moments (Debye-Ang^2)
       XXX      -2.2842    XXY       1.8742    XYY      -0.8628
       YYY      -1.8793    XXZ       3.2243    XYZ      -0.9815
       YYZ      -2.2997    XZZ       8.1185    YZZ       1.8447
       ZZZ     101.3254
    Hexadecapole Moments (Debye-Ang^3)
      XXXX   -2901.8099   XXXY      -7.6762   XXYY    -765.6529
      XYYY     -18.2814   YYYY    -952.3571   XXXZ       4.6998
      XXYZ       0.4183   XYYZ       3.6838   YYYZ       0.7251
      XXZZ    -632.0126   XYZZ      -7.6190   YYZZ    -284.5880
      XZZZ     -12.0210   YZZZ       2.9836   ZZZZ    -971.9322
 -----------------------------------------------------------------
 Calculating analytic gradient of the SCF energy
 Gradient of SCF Energy
            1           2           3           4           5           6
    1   0.0014637  -0.0279488  -0.0509323   0.0495218   0.0234769   0.0230004
    2  -0.0010761   0.0044566   0.0414999  -0.0490012  -0.0008610  -0.0361511
    3   0.0003924  -0.0101697  -0.0141600  -0.0162127  -0.0167311  -0.0101175
            7           8           9          10          11          12
    1  -0.0221875  -0.0196830   0.0204460   0.0061870   0.0005701   0.0058280
    2   0.0010495   0.0389445   0.0121919  -0.0172987   0.0062870   0.0049076
    3   0.0029823   0.0037136   0.0015457   0.0024347   0.0169470  -0.0135309
           13          14          15          16          17
    1  -0.0045549  -0.0043680  -0.0064704   0.0064898  -0.0008388
    2  -0.0177859   0.0063175   0.0063124   0.0003149  -0.0001078
    3  -0.0004925  -0.0152115   0.0148778   0.0646767  -0.0109443
 Max gradient component =       6.468E-02
 RMS gradient           =       2.100E-02
 Gradient time:  CPU 42.69 s  wall 5.35 s
 Geometry Optimization Parameters
   NAtoms,    NIC,     NZ,  NCons,   NDum,   NFix, NCnnct, MaxDiis
       17     125       0       0       0       0       0       0


** GEOMETRY OPTIMIZATION IN DELOCALIZED INTERNAL COORDINATES **
   Searching for a Minimum

   Optimization Cycle:   1

                       Coordinates (Angstroms)
     ATOM                X               Y               Z
      1  Ni        0.0237955925   -0.0042847891    0.2177750288
      2  S         1.7829890950   -1.4522436696    0.0853299577
      3  S         1.6712443306    1.5563013984    0.0865586353
      4  S        -1.6319117088   -1.5607048443    0.3520738058
      5  S        -1.7326062645    1.4489629438    0.3572829086
      6  C         2.6117330341   -0.0158379243    0.1913480801
      7  C         4.0528126512    0.0100089807    0.5713763880
      8  C        -2.5755831270    0.0177296821    0.3684340278
      9  C        -4.0682192285    0.0196941687    0.2939532691
     10  H         4.4566312572   -1.0188866374    0.6737414112
     11  H         4.1573804821    0.5366804520    1.5429271104
     12  H         4.6263362671    0.5539089507   -0.2062489294
     13  H        -4.4548445448   -1.0200356448    0.2667857530
     14  H        -4.3890868160    0.5461541340   -0.6289834050
     15  H        -4.4938580122    0.5389278249    1.1782032005
     16  C        -0.1249540295   -0.0031125152   -1.8070517198
     17  N        -0.1970026088   -0.0092460842   -2.9617730197
   Point Group: c1    Number of degrees of freedom:    45


   Energy is  -3343.933523736


 Attempting to generate delocalized internal coordinates
 Initial Hessian constructed with Jon Baker's OPTIMIZE code

 45 Hessian modes will be used to form the next step
  Hessian Eigenvalues:
     0.005345    0.006622    0.009907    0.010193    0.010426    0.010956
     0.075219    0.075282    0.076233    0.076856    0.077578    0.110231
     0.124453    0.139822    0.152574    0.159616    0.160000    0.160000
     0.160000    0.160000    0.160000    0.160000    0.160118    0.163622
     0.164750    0.200000    0.200000    0.216660    0.231268    0.235791
     0.242475    0.247864    0.248818    0.249518    0.325729    0.325939
     0.325965    0.326082    0.326403    0.327264    0.329618    0.333871
     0.389475    0.394306    1.297885

 Minimum search - taking simple RFO step
 Searching for Lamda that Minimizes Along All modes
 Value Taken    Lamda =  -0.07248266
 Calculated Step too Large.  Step scaled by  0.549899
 Step Taken.  Stepsize is  0.300000

                             Maximum     Tolerance    Cnvgd?
         Gradient           0.061783      0.000300      NO
         Displacement       0.134629      0.001200      NO
         Energy change     *********      0.000001      NO


 New Cartesian Coordinates Obtained by Inverse Iteration

 Displacement from previous Coordinates is:  0.556920
 ----------------------------------------------------------------
             Standard Nuclear Orientation (Angstroms)
    I     Atom           X                Y                Z
 ----------------------------------------------------------------
    1      Ni      0.0163749363    -0.0042394176     0.2131875021
    2      S       1.8256185817    -1.4562122500     0.1319784809
    3      S       1.7489821860     1.5102777220     0.1358111354
    4      S      -1.7174578513    -1.5118972453     0.3738513517
    5      S      -1.7837843160     1.4479212355     0.3800890496
    6      C       2.6642740623    -0.0246437884     0.2348935367
    7      C       4.1210050301     0.0139189704     0.5717500487
    8      C      -2.6364707144     0.0219450524     0.3773123301
    9      C      -4.1323156440     0.0102431310     0.2947781083
   10      H       4.5339331030    -0.9978319604     0.6622826337
   11      H       4.2490151274     0.5400761332     1.5257921525
   12      H       4.6670629429     0.5604236060    -0.2084151876
   13      H      -4.5148121994    -1.0167611722     0.2660971904
   14      H      -4.4487039640     0.5327430460    -0.6171259723
   15      H      -4.5598873490     0.5250939878     1.1647764767
   16      C      -0.1262599798    -0.0009686306    -1.8862710489
   17      N      -0.1917175821    -0.0060719934    -3.0390552853
 ----------------------------------------------------------------
 Molecular Point Group                 C1    NOp =  1
 Largest Abelian Subgroup              C1    NOp =  1
 Nuclear Repulsion Energy =        1412.62703621 hartrees
 There are       68 alpha and       68 beta electrons
 Applying Cartesian multipole field
    Component          Value
    ---------          -----
     (2,0,0)        1.00000E-11
     (0,2,0)        2.00000E-11
     (0,0,2)       -3.00000E-11
 Nucleus-field energy     =     0.0000000213 hartrees
 Requested basis set is 6-31+G(d)
 There are 74 shells and 254 basis functions
 A cutoff of  1.0D-09 yielded   2077 shell pairs
 There are     27138 function pairs (     27855 Cartesian)
 Smallest overlap matrix eigenvalue = 1.43E-05

 Q-Chem warning in module stvman/mkSTV.C, line 318:

 Overlap eigenvalue is smaller than square root of threshold
 Use THRESH >= 12 to get rid of this warning

 Guess MOs from SCF MO coefficient file

 -----------------------------------------------------------------------
  General SCF calculation program by
  Eric Jon Sundstrom, Paul Horn, Yuezhi Mao, Dmitri Zuev, Alec White,
  David Stuck, Shaama M.S., Shane Yost, Joonho Lee, David Small,
  Daniel Levine, Susi Lehtola, Hugh Burton, Evgeny Epifanovsky
 -----------------------------------------------------------------------
 Hartree-Fock
 using 8 threads for integral computing
 -------------------------------------------------------
 OpenMP Integral computing Module                
 Release: version 2.0, May 2017, Q-Chem Inc. Pleasanton 
 -------------------------------------------------------
 A restricted SCF calculation will be
 performed using DIIS, GDM
 SCF converges when RMS gradient is below 1.0e-05
 ---------------------------------------
  Cycle       Energy         DIIS error
 ---------------------------------------
    1   -3343.9613757406      7.79e-04  
    2   -3343.9667708346      1.73e-04  Done DIIS. Switching to GDM
 ---------------------------------------
  Cycle       Energy        RMS Gradient
 ---------------------------------------
    1   -3343.9667708346      3.13e-03   Normal BFGS step
    2   -3343.9671960681      2.45e-03   Normal BFGS step
    3   -3343.9673440152      7.99e-04   Normal BFGS step
    4   -3343.9673662698      4.65e-04   Normal BFGS step
    5   -3343.9673796641      5.10e-04   Normal BFGS step
    6   -3343.9673875037      3.99e-04   Normal BFGS step
    7   -3343.9673991495      4.62e-04   Normal BFGS step
    8   -3343.9674138989      4.76e-04   Normal BFGS step
    9   -3343.9674235019      3.14e-04   Normal BFGS step
   10   -3343.9674274053      1.17e-04   Normal BFGS step
   11   -3343.9674285397      8.34e-05   Normal BFGS step
   12   -3343.9674291803      8.57e-05   Normal BFGS step
   13   -3343.9674302307      8.85e-05   Normal BFGS step
   14   -3343.9674320001      1.08e-04   Normal BFGS step
   15   -3343.9674343235      1.25e-04   Normal BFGS step
   16   -3343.9674363273      7.97e-05   Normal BFGS step
   17   -3343.9674370227      3.75e-05   Normal BFGS step
   18   -3343.9674370511      1.71e-05   Normal BFGS step
   19   -3343.9674371337      1.49e-05   Normal BFGS step
   20   -3343.9674371325      1.40e-05   Normal BFGS step
   21   -3343.9674371846      1.27e-05   Normal BFGS step
   22   -3343.9674371738      1.08e-05  Line search: overstep
   23   -3343.9674372119      1.25e-05  Line search: understep
   24   -3343.9674371919      1.10e-05   Normal BFGS step
   25   -3343.9674371624      7.16e-06  Convergence criterion met
 ---------------------------------------
 SCF time:   CPU 206.41s  wall 26.00s 
 SCF   energy in the final basis set =    -3343.9674371624
 Total energy in the final basis set =    -3343.9674371624
 
 --------------------------------------------------------------
 
                    Orbital Energies (a.u.)
 --------------------------------------------------------------
 
 Alpha MOs
 -- Occupied --
******** -91.8112 -91.8093 -91.8002 -91.7953 -37.7474 -32.7941 -32.7824
-32.7503 -15.3440 -11.2445 -11.2422 -11.1502 -11.1480 -11.0144  -8.8247
 -8.8227  -8.8110  -8.8065  -6.5074  -6.5055  -6.5052  -6.5046  -6.5032
 -6.5028  -6.4937  -6.4915  -6.4912  -6.4893  -6.4870  -6.4866  -4.6975
 -3.1084  -3.0997  -3.0731  -1.0080  -1.0044  -0.9855  -0.8648  -0.8595
 -0.8046  -0.8015  -0.6067  -0.5889  -0.5466  -0.5023  -0.4992  -0.4969
 -0.4963  -0.4733  -0.4617  -0.4504  -0.4492  -0.4413  -0.4023  -0.3872
 -0.3636  -0.3360  -0.3288  -0.3080  -0.2622  -0.2586  -0.2508  -0.2408
 -0.2351  -0.2101  -0.2037  -0.1988
 -- Virtual --
  0.1491   0.1541   0.1595   0.1699   0.1794   0.1844   0.1855   0.1973
  0.2020   0.2038   0.2058   0.2097   0.2267   0.2305   0.2361   0.2381
  0.2465   0.2617   0.2636   0.2709   0.2777   0.2829   0.2996   0.3031
  0.3076   0.3099   0.3297   0.3299   0.3379   0.3387   0.3436   0.3585
  0.3616   0.3664   0.3758   0.3796   0.3851   0.3875   0.3971   0.4010
  0.4085   0.4157   0.4221   0.4378   0.4397   0.4450   0.4515   0.4597
  0.4650   0.4758   0.4846   0.4936   0.4998   0.5075   0.5168   0.5503
  0.5561   0.5703   0.5786   0.5920   0.6105   0.6279   0.6876   0.6892
  0.6960   0.7816   0.7975   0.8179   0.8383   0.8514   0.8607   0.8665
  0.8702   0.8832   0.8903   0.9064   0.9097   0.9580   0.9772   0.9873
  0.9979   1.0097   1.0160   1.0374   1.0412   1.0530   1.0609   1.0660
  1.0809   1.0885   1.0941   1.1031   1.1115   1.1130   1.1252   1.1285
  1.1460   1.1549   1.1770   1.2548   1.2596   1.2607   1.2629   1.2801
  1.2959   1.3055   1.3104   1.3359   1.3526   1.3774   1.3798   1.3873
  1.4060   1.4168   1.4369   1.4445   1.4579   1.4866   1.4908   1.4980
  1.5114   1.5185   1.5290   1.5436   1.5810   1.5998   1.6059   1.6527
  1.7473   1.7991   1.8372   1.8683   1.8873   1.9648   2.0473   2.0610
  2.0779   2.0945   2.1641   2.1901   2.1903   2.2484   2.2531   2.3576
  2.3705   2.3824   2.3930   2.4609   2.5065   2.5169   2.5219   2.5249
  2.5366   2.5994   2.6456   2.6637   2.6703   2.7242   2.7318   2.7439
  2.7569   2.7733   2.7807   2.7851   2.8461   2.8564   2.8720   2.8884
  2.9042   3.0937   3.1044   3.2211   3.2264   3.3948   3.7597   4.4754
  4.4834   4.5317   4.5402   4.7222   4.7388   4.7718   4.9039   4.9089
  4.9927  33.8176
 --------------------------------------------------------------
 
          Ground-State Mulliken Net Atomic Charges

     Atom                 Charge (a.u.)
  ----------------------------------------
      1 Ni                    1.366797
      2 S                    -0.316474
      3 S                    -0.406095
      4 S                    -0.418874
      5 S                    -0.289465
      6 C                     0.082871
      7 C                    -0.768462
      8 C                     0.222563
      9 C                    -0.826164
     10 H                     0.210314
     11 H                     0.222537
     12 H                     0.218346
     13 H                     0.215964
     14 H                     0.228633
     15 H                     0.210607
     16 C                    -0.368520
     17 N                    -0.584578
  ----------------------------------------
  Sum of atomic charges =    -1.000000

 -----------------------------------------------------------------
                    Cartesian Multipole Moments
 -----------------------------------------------------------------
    Charge (ESU x 10^10)
                -4.8032
    Dipole Moment (Debye)
         X       0.4235      Y      -0.0065      Z       7.6826
       Tot       7.6943
    Quadrupole Moments (Debye-Ang)
        XX    -102.4899     XY      -2.2588     YY    -122.5621
        XZ       0.0381     YZ       0.1480     ZZ    -138.4008
    Octopole Moments (Debye-Ang^2)
       XXX      -0.9397    XXY       1.8325    XYY      -0.2334
       YYY      -1.7164    XXZ       2.3892    XYZ      -0.7317
       YYZ      -3.1153    XZZ       8.4179    YZZ       1.5999
       ZZZ     104.4395
    Hexadecapole Moments (Debye-Ang^3)
      XXXX   -3000.0843   XXXY      -2.4919   XXYY    -786.4534
      XYYY     -10.5607   YYYY    -928.2820   XXXZ       2.7442
      XXYZ       0.0886   XYYZ       1.9288   YYYZ      -0.4348
      XXZZ    -660.4163   XYZZ      -5.2261   YYZZ    -285.9913
      XZZZ     -16.9991   YZZZ       1.8227   ZZZZ   -1032.2620
 -----------------------------------------------------------------
 Calculating analytic gradient of the SCF energy
 Gradient of SCF Energy
            1           2           3           4           5           6
    1   0.0014097  -0.0192841  -0.0376609   0.0371293   0.0162120   0.0178986
    2  -0.0007026   0.0053794   0.0323764  -0.0364459  -0.0051638  -0.0332266
    3   0.0115996  -0.0095327  -0.0121495  -0.0128176  -0.0133342  -0.0098654
            7           8           9          10          11          12
    1  -0.0135978  -0.0158353   0.0116132   0.0034266   0.0007239   0.0032844
    2   0.0021605   0.0362311   0.0069703  -0.0089277   0.0030260   0.0023106
    3   0.0056344   0.0025299   0.0013275   0.0014685   0.0089412  -0.0076076
           13          14          15          16          17
    1  -0.0030723  -0.0022401  -0.0035972   0.0039549  -0.0003648
    2  -0.0094761   0.0027360   0.0025266   0.0003148  -0.0000889
    3  -0.0003349  -0.0082139   0.0078981   0.0392586  -0.0048021
 Max gradient component =       3.926E-02
 RMS gradient           =       1.545E-02
 Gradient time:  CPU 41.02 s  wall 5.13 s
 Geometry Optimization Parameters
   NAtoms,    NIC,     NZ,  NCons,   NDum,   NFix, NCnnct, MaxDiis
       17     125       0       0       0       0       0       0

 Cartesian Hessian Update
 Hessian updated using BFGS update


** GEOMETRY OPTIMIZATION IN DELOCALIZED INTERNAL COORDINATES **
   Searching for a Minimum

   Optimization Cycle:   2

                       Coordinates (Angstroms)
     ATOM                X               Y               Z
      1  Ni        0.0163749363   -0.0042394176    0.2131875021
      2  S         1.8256185817   -1.4562122500    0.1319784809
      3  S         1.7489821860    1.5102777220    0.1358111354
      4  S        -1.7174578513   -1.5118972453    0.3738513517
      5  S        -1.7837843160    1.4479212355    0.3800890496
      6  C         2.6642740623   -0.0246437884    0.2348935367
      7  C         4.1210050301    0.0139189704    0.5717500487
      8  C        -2.6364707144    0.0219450524    0.3773123301
      9  C        -4.1323156440    0.0102431310    0.2947781083
     10  H         4.5339331030   -0.9978319604    0.6622826337
     11  H         4.2490151274    0.5400761332    1.5257921525
     12  H         4.6670629429    0.5604236060   -0.2084151876
     13  H        -4.5148121994   -1.0167611722    0.2660971904
     14  H        -4.4487039640    0.5327430460   -0.6171259723
     15  H        -4.5598873490    0.5250939878    1.1647764767
     16  C        -0.1262599798   -0.0009686306   -1.8862710489
     17  N        -0.1917175821   -0.0060719934   -3.0390552853
   Point Group: c1    Number of degrees of freedom:    45


   Energy is  -3343.967437162

 Hessian updated using BFGS update

 41 Hessian modes will be used to form the next step
  Hessian Eigenvalues:
     0.005371    0.006611    0.009907    0.010193    0.010427    0.010990
     0.075221    0.075289    0.076236    0.076857    0.077597    0.105134
     0.110247    0.144810    0.152590    0.152967    0.159759    0.160002
     0.160691    0.162252    0.164002    0.198479    0.200000    0.200002
     0.216662    0.231643    0.242413    0.247679    0.249047    0.259582
     0.325784    0.325951    0.326043    0.326306    0.327130    0.329565
     0.333647    0.339255    0.389473    0.397779    1.299017

 Minimum search - taking simple RFO step
 Searching for Lamda that Minimizes Along All modes
 Value Taken    Lamda =  -0.05204361
 Calculated Step too Large.  Step scaled by  0.531746
 Step Taken.  Stepsize is  0.300000

                             Maximum     Tolerance    Cnvgd?
         Gradient           0.037048      0.000300      NO
         Displacement       0.123864      0.001200      NO
         Energy change     -0.033913      0.000001      NO


 New Cartesian Coordinates Obtained by Inverse Iteration

 Displacement from previous Coordinates is:  0.489369
 ----------------------------------------------------------------
             Standard Nuclear Orientation (Angstroms)
    I     Atom           X                Y                Z
 ----------------------------------------------------------------
    1      Ni      0.0072903790    -0.0024522459     0.1957002838
    2      S       1.8627825955    -1.4532796957     0.1846348325
    3      S       1.8179915961     1.4688637906     0.1910166322
    4      S      -1.7974586676    -1.4675833554     0.3884117604
    5      S      -1.8333003162     1.4473895503     0.3947649197
    6      C       2.7050489541    -0.0196725568     0.2831033355
    7      C       4.1758891718     0.0174299640     0.5713997229
    8      C      -2.6855774871     0.0150188145     0.3831064120
    9      C      -4.1834697755     0.0013092706     0.2976140270
   10      H       4.5898854117    -0.9873116489     0.6445271478
   11      H       4.3331221290     0.5412527939     1.5141473913
   12      H       4.6931398769     0.5658255326    -0.2175689901
   13      H      -4.5622185124    -1.0184404305     0.2696637693
   14      H      -4.4969970051     0.5237485576    -0.6073123405
   15      H      -4.6074031519     0.5177628198     1.1601605932
   16      C      -0.1234381494    -0.0001161960    -1.9597096139
   17      N      -0.1804306791    -0.0057285383    -3.1119273805
 ----------------------------------------------------------------
 Molecular Point Group                 C1    NOp =  1
 Largest Abelian Subgroup              C1    NOp =  1
 Nuclear Repulsion Energy =        1398.24402398 hartrees
 There are       68 alpha and       68 beta electrons
 Applying Cartesian multipole field
    Component          Value
    ---------          -----
     (2,0,0)        1.00000E-11
     (0,2,0)        2.00000E-11
     (0,0,2)       -3.00000E-11
 Nucleus-field energy     =     0.0000000213 hartrees
 Requested basis set is 6-31+G(d)
 There are 74 shells and 254 basis functions
 A cutoff of  1.0D-09 yielded   2057 shell pairs
 There are     26900 function pairs (     27605 Cartesian)
 Smallest overlap matrix eigenvalue = 1.45E-05

 Q-Chem warning in module stvman/mkSTV.C, line 318:

 Overlap eigenvalue is smaller than square root of threshold
 Use THRESH >= 12 to get rid of this warning

 Guess MOs from SCF MO coefficient file

 -----------------------------------------------------------------------
  General SCF calculation program by
  Eric Jon Sundstrom, Paul Horn, Yuezhi Mao, Dmitri Zuev, Alec White,
  David Stuck, Shaama M.S., Shane Yost, Joonho Lee, David Small,
  Daniel Levine, Susi Lehtola, Hugh Burton, Evgeny Epifanovsky
 -----------------------------------------------------------------------
 Hartree-Fock
 using 8 threads for integral computing
 -------------------------------------------------------
 OpenMP Integral computing Module                
 Release: version 2.0, May 2017, Q-Chem Inc. Pleasanton 
 -------------------------------------------------------
 A restricted SCF calculation will be
 performed using DIIS, GDM
 SCF converges when RMS gradient is below 1.0e-05
 ---------------------------------------
  Cycle       Energy         DIIS error
 ---------------------------------------
    1   -3343.9844040807      7.19e-04  
    2   -3343.9893955412      1.79e-04  Done DIIS. Switching to GDM
 ---------------------------------------
  Cycle       Energy        RMS Gradient
 ---------------------------------------
    1   -3343.9893955412      4.24e-03   Normal BFGS step
    2   -3343.9898377196      2.94e-03   Normal BFGS step
    3   -3343.9900030969      1.07e-03   Normal BFGS step
    4   -3343.9900261483      4.85e-04   Normal BFGS step
    5   -3343.9900380330      4.39e-04   Normal BFGS step
    6   -3343.9900428142      4.01e-04   Normal BFGS step
    7   -3343.9900509472      3.22e-04   Normal BFGS step
    8   -3343.9900631828      3.49e-04   Normal BFGS step
    9   -3343.9900732033      3.44e-04   Normal BFGS step
   10   -3343.9900784462      1.85e-04   Normal BFGS step
   11   -3343.9900799584      1.17e-04   Normal BFGS step
   12   -3343.9900806077      1.16e-04   Normal BFGS step
   13   -3343.9900815145      1.16e-04   Normal BFGS step
   14   -3343.9900833306      1.49e-04   Normal BFGS step
   15   -3343.9900859309      1.45e-04   Normal BFGS step
   16   -3343.9900878712      9.48e-05   Normal BFGS step
   17   -3343.9900885607      4.67e-05   Normal BFGS step
   18   -3343.9900886941      2.02e-05   Normal BFGS step
   19   -3343.9900887904      1.75e-05   Normal BFGS step
   20   -3343.9900888036      1.62e-05   Normal BFGS step
   21   -3343.9900887996      1.46e-05  Line search: overstep
   22   -3343.9900887544      1.58e-05  Line search: overstep
   23   -3343.9900887588      1.61e-05  Line search: overstep
   24   -3343.9900887445      1.62e-05  Line search: overstep
   25   -3343.9900890536      1.62e-05  Line search: understep
   26   -3343.9900887109      1.62e-05  Line search: overstep
   27   -3343.9900890654      1.62e-05  Line search: understep
   28   -3343.9900887521      1.61e-05  Line search: overstep
   29   -3343.9900891006      1.62e-05  Line search: understep
   30   -3343.9900887621      1.61e-05  Line search: overstep
   31   -3343.9900891225      1.62e-05  Line search: understep
   32   -3343.9900887472      1.61e-05  Line search: overstep
   33   -3343.9900890640      1.62e-05  Line search: understep
   34   -3343.9900887277      1.62e-05  Line search: overstep
   35   -3343.9900890723      1.62e-05  Line search: understep
   36   -3343.9900887618      1.62e-05  Line search: overstep
  GDM::   16 failed line searches.  Resetting
   37   -3343.9900890499      1.62e-05  Line search: understep
  GDM::   17 failed line searches.  Resetting
   38   -3343.9900888490      1.61e-05  Line search: understep
  GDM::   18 failed line searches.  Resetting
   39   -3343.9900884707      1.62e-05  Line search: overstep
  GDM::   19 failed line searches.  Resetting
   40   -3343.9900888518      1.61e-05  Line search: understep
  GDM::   20 failed line searches.  Resetting
   41   -3343.9900884966      1.62e-05  Line search: overstep
  GDM::   21 failed line searches.  Resetting
   42   -3343.9900888322      1.61e-05  Line search: understep
  GDM::   22 failed line searches.  Resetting
   43   -3343.9900884813      1.61e-05  Line search: overstep
  GDM::   23 failed line searches.  Resetting
   44   -3343.9900887939      1.61e-05  Line search: overstep
  GDM::   24 failed line searches.  Resetting
   45   -3343.9900888440      1.61e-05  Line search: understep
  GDM::   25 failed line searches.  Resetting
   46   -3343.9900887919      1.61e-05  Line search: overstep
  GDM::   26 failed line searches.  Resetting
   47   -3343.9900888478      1.61e-05  Line search: understep
  GDM::   27 failed line searches.  Resetting
   48   -3343.9900888013      1.61e-05  Line search: understep
  GDM::   28 failed line searches.  Resetting
   49   -3343.9900888013      1.61e-05  Line search: understep
  GDM::   29 failed line searches.  Resetting
   50   -3343.9900888013      1.61e-05  Line search: understep
  GDM::   30 failed line searches.  Resetting
   51   -3343.9900888013      1.61e-05  Line search: understep
  GDM::   31 failed line searches.  Resetting
   52   -3343.9900888013      1.61e-05  Line search: understep
  GDM::   32 failed line searches.  Resetting
   53   -3343.9900888013      1.61e-05  Line search: understep
  GDM::   33 failed line searches.  Resetting
   54   -3343.9900888013      1.61e-05  Line search: understep
  GDM::   34 failed line searches.  Resetting
   55   -3343.9900888013      1.61e-05  Line search: understep
  GDM::   35 failed line searches.  Resetting
   56   -3343.9900888013      1.61e-05  Line search: understep
  GDM::   36 failed line searches.  Resetting
   57   -3343.9900888013      1.61e-05  Line search: understep
  GDM::   37 failed line searches.  Resetting
   58   -3343.9900888013      1.61e-05  Line search: understep
  GDM::   38 failed line searches.  Resetting
   59   -3343.9900888013      1.61e-05  Line search: understep
  GDM::   39 failed line searches.  Resetting
   60   -3343.9900888013      1.61e-05  Line search: understep
  GDM::   40 failed line searches.  Resetting
   61   -3343.9900888013      1.61e-05  Line search: understep
  GDM::   41 failed line searches.  Resetting
   62   -3343.9900888013      1.61e-05  Line search: understep
  GDM::   42 failed line searches.  Resetting
   63   -3343.9900888013      1.61e-05  Line search: understep
  GDM::   43 failed line searches.  Resetting
   64   -3343.9900888013      1.61e-05  Line search: understep
  GDM::   44 failed line searches.  Resetting
   65   -3343.9900888013      1.61e-05  Line search: understep
  GDM::   45 failed line searches.  Resetting
   66   -3343.9900888013      1.61e-05  Line search: understep
  GDM::   46 failed line searches.  Resetting
   67   -3343.9900888013      1.61e-05  Line search: understep
  GDM::   47 failed line searches.  Resetting
   68   -3343.9900888013      1.61e-05  Line search: understep
  GDM::   48 failed line searches.  Resetting
   69   -3343.9900888013      1.61e-05  Line search: understep
  GDM::   49 failed line searches.  Resetting
   70   -3343.9900888013      1.61e-05  Line search: understep
  GDM::   50 failed line searches.  Resetting
   71   -3343.9900888013      1.61e-05  Line search: understep
  GDM::   51 failed line searches.  Resetting
   72   -3343.9900888013      1.61e-05  Line search: understep
  GDM::   52 failed line searches.  Resetting
   73   -3343.9900888013      1.61e-05  Line search: understep
  GDM::   53 failed line searches.  Resetting
   74   -3343.9900888013      1.61e-05  Line search: understep
  GDM::   54 failed line searches.  Resetting
   75   -3343.9900888013      1.61e-05  Line search: understep
  GDM::   55 failed line searches.  Resetting
   76   -3343.9900888013      1.61e-05  Line search: understep
  GDM::   56 failed line searches.  Resetting
   77   -3343.9900888013      1.61e-05  Line search: understep
  GDM::   57 failed line searches.  Resetting
   78   -3343.9900888013      1.61e-05  Line search: understep
  GDM::   58 failed line searches.  Resetting
   79   -3343.9900888013      1.61e-05  Line search: understep
  GDM::   59 failed line searches.  Resetting
   80   -3343.9900888013      1.61e-05  Line search: understep
  GDM::   60 failed line searches.  Resetting
   81   -3343.9900888013      1.61e-05  Line search: understep
  GDM::   61 failed line searches.  Resetting
   82   -3343.9900888013      1.61e-05  Line search: understep
  GDM::   62 failed line searches.  Resetting
   83   -3343.9900888013      1.61e-05  Line search: understep
  GDM::   63 failed line searches.  Resetting
   84   -3343.9900888013      1.61e-05  Line search: understep
  GDM::   64 failed line searches.  Resetting
   85   -3343.9900888013      1.61e-05  Line search: understep
  GDM::   65 failed line searches.  Resetting
   86   -3343.9900888013      1.61e-05  Line search: understep
  GDM::   66 failed line searches.  Resetting
   87   -3343.9900888013      1.61e-05  Line search: understep
  GDM::   67 failed line searches.  Resetting
   88   -3343.9900888013      1.61e-05  Line search: understep
  GDM::   68 failed line searches.  Resetting
   89   -3343.9900888013      1.61e-05  Line search: understep
  GDM::   69 failed line searches.  Resetting
   90   -3343.9900888013      1.61e-05  Line search: understep
  GDM::   70 failed line searches.  Resetting
   91   -3343.9900888013      1.61e-05  Line search: understep
  GDM::   71 failed line searches.  Resetting
   92   -3343.9900888013      1.61e-05  Line search: understep
  GDM::   72 failed line searches.  Resetting
   93   -3343.9900888013      1.61e-05  Line search: understep
  GDM::   73 failed line searches.  Resetting
   94   -3343.9900888013      1.61e-05  Line search: understep
  GDM::   74 failed line searches.  Resetting
   95   -3343.9900888013      1.61e-05  Line search: understep
  GDM::   75 failed line searches.  Resetting
   96   -3343.9900888013      1.61e-05  Line search: understep
  GDM::   76 failed line searches.  Resetting
   97   -3343.9900888013      1.61e-05  Line search: understep
  GDM::   77 failed line searches.  Resetting
   98   -3343.9900888013      1.61e-05  Line search: understep
  GDM::   78 failed line searches.  Resetting
   99   -3343.9900888013      1.61e-05  Line search: understep
  GDM::   79 failed line searches.  Resetting
  100   -3343.9900888013      1.61e-05  Line search: understep
  GDM::   80 failed line searches.  Resetting
  101   -3343.9900888013      1.61e-05  Line search: understep
  GDM::   81 failed line searches.  Resetting
  102   -3343.9900888013      1.61e-05  Line search: understep
  GDM::   82 failed line searches.  Resetting
  103   -3343.9900888013      1.61e-05  Line search: understep
  GDM::   83 failed line searches.  Resetting
  104   -3343.9900888013      1.61e-05  Line search: understep
  GDM::   84 failed line searches.  Resetting
  105   -3343.9900888013      1.61e-05  Line search: understep
  GDM::   85 failed line searches.  Resetting
  106   -3343.9900888013      1.61e-05  Line search: understep
  GDM::   86 failed line searches.  Resetting
  107   -3343.9900888013      1.61e-05  Line search: understep
  GDM::   87 failed line searches.  Resetting
  108   -3343.9900888013      1.61e-05  Line search: understep
  GDM::   88 failed line searches.  Resetting
  109   -3343.9900888013      1.61e-05  Line search: understep
  GDM::   89 failed line searches.  Resetting
  110   -3343.9900888013      1.61e-05  Line search: understep
  GDM::   90 failed line searches.  Resetting
  111   -3343.9900888013      1.61e-05  Line search: understep
  GDM::   91 failed line searches.  Resetting
  112   -3343.9900888013      1.61e-05  Line search: understep
  GDM::   92 failed line searches.  Resetting
  113   -3343.9900888013      1.61e-05  Line search: understep
  GDM::   93 failed line searches.  Resetting
  114   -3343.9900888013      1.61e-05  Line search: understep
  GDM::   94 failed line searches.  Resetting
  115   -3343.9900888013      1.61e-05  Line search: understep
  GDM::   95 failed line searches.  Resetting
  116   -3343.9900888013      1.61e-05  Line search: understep
  GDM::   96 failed line searches.  Resetting
  117   -3343.9900888013      1.61e-05  Line search: understep
  GDM::   97 failed line searches.  Resetting
  118   -3343.9900888013      1.61e-05  Line search: understep
  GDM::   98 failed line searches.  Resetting
  119   -3343.9900888013      1.61e-05  Line search: understep
  GDM::   99 failed line searches.  Resetting
  120   -3343.9900888013      1.61e-05  Line search: understep
  GDM::   100 failed line searches.  Resetting
  121   -3343.9900888013      1.61e-05  Line search: understep
  GDM::   101 failed line searches.  Resetting
  122   -3343.9900888013      1.61e-05  Line search: understep
  GDM::   102 failed line searches.  Resetting
  123   -3343.9900888013      1.61e-05  Line search: understep
  GDM::   103 failed line searches.  Resetting
  124   -3343.9900888013      1.61e-05  Line search: understep
  GDM::   104 failed line searches.  Resetting
  125   -3343.9900888013      1.61e-05  Line search: understep
  GDM::   105 failed line searches.  Resetting
  126   -3343.9900888013      1.61e-05  Line search: understep
  GDM::   106 failed line searches.  Resetting
  127   -3343.9900888013      1.61e-05  Line search: understep
  GDM::   107 failed line searches.  Resetting
  128   -3343.9900888013      1.61e-05  Line search: understep
  GDM::   108 failed line searches.  Resetting
  129   -3343.9900888013      1.61e-05  Line search: understep
  GDM::   109 failed line searches.  Resetting
  130   -3343.9900888013      1.61e-05  Line search: understep
  GDM::   110 failed line searches.  Resetting
  131   -3343.9900888013      1.61e-05  Line search: understep
  GDM::   111 failed line searches.  Resetting
  132   -3343.9900888013      1.61e-05  Line search: understep
  GDM::   112 failed line searches.  Resetting
  133   -3343.9900888013      1.61e-05  Line search: understep
  GDM::   113 failed line searches.  Resetting
  134   -3343.9900888013      1.61e-05  Line search: understep
  GDM::   114 failed line searches.  Resetting
  135   -3343.9900888013      1.61e-05  Line search: understep
  GDM::   115 failed line searches.  Resetting
  136   -3343.9900888013      1.61e-05  Line search: understep
  GDM::   116 failed line searches.  Resetting
  137   -3343.9900888013      1.61e-05  Line search: understep
  GDM::   117 failed line searches.  Resetting
  138   -3343.9900888013      1.61e-05  Line search: understep
  GDM::   118 failed line searches.  Resetting
  139   -3343.9900888013      1.61e-05  Line search: understep
  GDM::   119 failed line searches.  Resetting
  140   -3343.9900888013      1.61e-05  Line search: understep
  GDM::   120 failed line searches.  Resetting
  141   -3343.9900888013      1.61e-05  Line search: understep
  GDM::   121 failed line searches.  Resetting
  142   -3343.9900888013      1.61e-05  Line search: understep
  GDM::   122 failed line searches.  Resetting
  143   -3343.9900888013      1.61e-05  Line search: understep
  GDM::   123 failed line searches.  Resetting
  144   -3343.9900888013      1.61e-05  Line search: understep
  GDM::   124 failed line searches.  Resetting
  145   -3343.9900888013      1.61e-05  Line search: understep
  GDM::   125 failed line searches.  Resetting
  146   -3343.9900888013      1.61e-05  Line search: understep
  GDM::   126 failed line searches.  Resetting
  147   -3343.9900888013      1.61e-05  Line search: understep
  GDM::   127 failed line searches.  Resetting
  148   -3343.9900888013      1.61e-05  Line search: understep
  GDM::   128 failed line searches.  Resetting
  149   -3343.9900888013      1.61e-05  Line search: understep
  GDM::   129 failed line searches.  Resetting
  150   -3343.9900888013      1.61e-05  Line search: understep
  GDM::   130 failed line searches.  Resetting
  151   -3343.9900888013      1.61e-05  Line search: understep
  GDM::   131 failed line searches.  Resetting
  152   -3343.9900888013      1.61e-05  Line search: understep
  GDM::   132 failed line searches.  Resetting
  153   -3343.9900888013      1.61e-05  Line search: understep
  GDM::   133 failed line searches.  Resetting
  154   -3343.9900888013      1.61e-05  Line search: understep
  GDM::   134 failed line searches.  Resetting
  155   -3343.9900888013      1.61e-05  Line search: understep
  GDM::   135 failed line searches.  Resetting
  156   -3343.9900888013      1.61e-05  Line search: understep
  GDM::   136 failed line searches.  Resetting
  157   -3343.9900888013      1.61e-05  Line search: understep
  GDM::   137 failed line searches.  Resetting
  158   -3343.9900888013      1.61e-05  Line search: understep
  GDM::   138 failed line searches.  Resetting
  159   -3343.9900888013      1.61e-05  Line search: understep
  GDM::   139 failed line searches.  Resetting
  160   -3343.9900888013      1.61e-05  Line search: understep
  GDM::   140 failed line searches.  Resetting
  161   -3343.9900888013      1.61e-05  Line search: understep
  GDM::   141 failed line searches.  Resetting
  162   -3343.9900888013      1.61e-05  Line search: understep
  GDM::   142 failed line searches.  Resetting
  163   -3343.9900888013      1.61e-05  Line search: understep
  GDM::   143 failed line searches.  Resetting
  164   -3343.9900888013      1.61e-05  Line search: understep
  GDM::   144 failed line searches.  Resetting
  165   -3343.9900888013      1.61e-05  Line search: understep
  GDM::   145 failed line searches.  Resetting
  166   -3343.9900888013      1.61e-05  Line search: understep
  GDM::   146 failed line searches.  Resetting
  167   -3343.9900888013      1.61e-05  Line search: understep
  GDM::   147 failed line searches.  Resetting
  168   -3343.9900888013      1.61e-05  Line search: understep
  GDM::   148 failed line searches.  Resetting
  169   -3343.9900888013      1.61e-05  Line search: understep
  GDM::   149 failed line searches.  Resetting
  170   -3343.9900888013      1.61e-05  Line search: understep
  GDM::   150 failed line searches.  Resetting
  171   -3343.9900888013      1.61e-05  Line search: understep
  GDM::   151 failed line searches.  Resetting
  172   -3343.9900888013      1.61e-05  Line search: understep
  GDM::   152 failed line searches.  Resetting
  173   -3343.9900888013      1.61e-05  Line search: understep
  GDM::   153 failed line searches.  Resetting
  174   -3343.9900888013      1.61e-05  Line search: understep
  GDM::   154 failed line searches.  Resetting
  175   -3343.9900888013      1.61e-05  Line search: understep
  GDM::   155 failed line searches.  Resetting
  176   -3343.9900888013      1.61e-05  Line search: understep
  GDM::   156 failed line searches.  Resetting
  177   -3343.9900888013      1.61e-05  Line search: understep
  GDM::   157 failed line searches.  Resetting
  178   -3343.9900888013      1.61e-05  Line search: understep
  GDM::   158 failed line searches.  Resetting
  179   -3343.9900888013      1.61e-05  Line search: understep
  GDM::   159 failed line searches.  Resetting
  180   -3343.9900888013      1.61e-05  Line search: understep
  GDM::   160 failed line searches.  Resetting
  181   -3343.9900888013      1.61e-05  Line search: understep
  GDM::   161 failed line searches.  Resetting
  182   -3343.9900888013      1.61e-05  Line search: understep
  GDM::   162 failed line searches.  Resetting
  183   -3343.9900888013      1.61e-05  Line search: understep
  GDM::   163 failed line searches.  Resetting
  184   -3343.9900888013      1.61e-05  Line search: understep
  GDM::   164 failed line searches.  Resetting
  185   -3343.9900888013      1.61e-05  Line search: understep
  GDM::   165 failed line searches.  Resetting
  186   -3343.9900888013      1.61e-05  Line search: understep
  GDM::   166 failed line searches.  Resetting
  187   -3343.9900888013      1.61e-05  Line search: understep
  GDM::   167 failed line searches.  Resetting
  188   -3343.9900888013      1.61e-05  Line search: understep
  GDM::   168 failed line searches.  Resetting
  189   -3343.9900888013      1.61e-05  Line search: understep
  GDM::   169 failed line searches.  Resetting
  190   -3343.9900888013      1.61e-05  Line search: understep
  GDM::   170 failed line searches.  Resetting
  191   -3343.9900888013      1.61e-05  Line search: understep
  GDM::   171 failed line searches.  Resetting
  192   -3343.9900888013      1.61e-05  Line search: understep
  GDM::   172 failed line searches.  Resetting
  193   -3343.9900888013      1.61e-05  Line search: understep
  GDM::   173 failed line searches.  Resetting
  194   -3343.9900888013      1.61e-05  Line search: understep
  GDM::   174 failed line searches.  Resetting
  195   -3343.9900888013      1.61e-05  Line search: understep
  GDM::   175 failed line searches.  Resetting
  196   -3343.9900888013      1.61e-05  Line search: understep
  GDM::   176 failed line searches.  Resetting
  197   -3343.9900888013      1.61e-05  Line search: understep
  GDM::   177 failed line searches.  Resetting
  198   -3343.9900888013      1.61e-05  Line search: understep
  GDM::   178 failed line searches.  Resetting
  199   -3343.9900888013      1.61e-05  Line search: understep
  GDM::   179 failed line searches.  Resetting
  200   -3343.9900888013      1.61e-05  Line search: understep
  GDM::   180 failed line searches.  Resetting
  201   -3343.9900888013      1.61e-05  Line search: understep
  GDM::   181 failed line searches.  Resetting
  202   -3343.9900888013      1.61e-05  Line search: understep
  GDM::   182 failed line searches.  Resetting
  203   -3343.9900888013      1.61e-05  Line search: understep
  GDM::   183 failed line searches.  Resetting
  204   -3343.9900888013      1.61e-05  Line search: understep
  GDM::   184 failed line searches.  Resetting
  205   -3343.9900888013      1.61e-05  Line search: understep
  GDM::   185 failed line searches.  Resetting
  206   -3343.9900888013      1.61e-05  Line search: understep
  GDM::   186 failed line searches.  Resetting
  207   -3343.9900888013      1.61e-05  Line search: understep
  GDM::   187 failed line searches.  Resetting
  208   -3343.9900888013      1.61e-05  Line search: understep
  GDM::   188 failed line searches.  Resetting
  209   -3343.9900888013      1.61e-05  Line search: understep
  GDM::   189 failed line searches.  Resetting
  210   -3343.9900888013      1.61e-05  Line search: understep
  GDM::   190 failed line searches.  Resetting
  211   -3343.9900888013      1.61e-05  Line search: understep
  GDM::   191 failed line searches.  Resetting
  212   -3343.9900888013      1.61e-05  Line search: understep
  GDM::   192 failed line searches.  Resetting
  213   -3343.9900888013      1.61e-05  Line search: understep
  GDM::   193 failed line searches.  Resetting
  214   -3343.9900888013      1.61e-05  Line search: understep
  GDM::   194 failed line searches.  Resetting
  215   -3343.9900888013      1.61e-05  Line search: understep
  GDM::   195 failed line searches.  Resetting
  216   -3343.9900888013      1.61e-05  Line search: understep
  GDM::   196 failed line searches.  Resetting
  217   -3343.9900888013      1.61e-05  Line search: understep
  GDM::   197 failed line searches.  Resetting
  218   -3343.9900888013      1.61e-05  Line search: understep
  GDM::   198 failed line searches.  Resetting
  219   -3343.9900888013      1.61e-05  Line search: understep
  GDM::   199 failed line searches.  Resetting
  220   -3343.9900888013      1.61e-05  Line search: understep
  GDM::   200 failed line searches.  Resetting
  221   -3343.9900888013      1.61e-05  Line search: understep
  GDM::   201 failed line searches.  Resetting
  222   -3343.9900888013      1.61e-05  Line search: understep
  GDM::   202 failed line searches.  Resetting
  223   -3343.9900888013      1.61e-05  Line search: understep
  GDM::   203 failed line searches.  Resetting
  224   -3343.9900888013      1.61e-05  Line search: understep
  GDM::   204 failed line searches.  Resetting
  225   -3343.9900888013      1.61e-05  Line search: understep
  GDM::   205 failed line searches.  Resetting
  226   -3343.9900888013      1.61e-05  Line search: understep
  GDM::   206 failed line searches.  Resetting
  227   -3343.9900888013      1.61e-05  Line search: understep
  GDM::   207 failed line searches.  Resetting
  228   -3343.9900888013      1.61e-05  Line search: understep
  GDM::   208 failed line searches.  Resetting
  229   -3343.9900888013      1.61e-05  Line search: understep
  GDM::   209 failed line searches.  Resetting
  230   -3343.9900888013      1.61e-05  Line search: understep
  GDM::   210 failed line searches.  Resetting
  231   -3343.9900888013      1.61e-05  Line search: understep
  GDM::   211 failed line searches.  Resetting
  232   -3343.9900888013      1.61e-05  Line search: understep
  GDM::   212 failed line searches.  Resetting
  233   -3343.9900888013      1.61e-05  Line search: understep
  GDM::   213 failed line searches.  Resetting
  234   -3343.9900888013      1.61e-05  Line search: understep
  GDM::   214 failed line searches.  Resetting
  235   -3343.9900888013      1.61e-05  Line search: understep
  GDM::   215 failed line searches.  Resetting
  236   -3343.9900888013      1.61e-05  Line search: understep
  GDM::   216 failed line searches.  Resetting
  237   -3343.9900888013      1.61e-05  Line search: understep
  GDM::   217 failed line searches.  Resetting
  238   -3343.9900888013      1.61e-05  Line search: understep
  GDM::   218 failed line searches.  Resetting
  239   -3343.9900888013      1.61e-05  Line search: understep
  GDM::   219 failed line searches.  Resetting
  240   -3343.9900888013      1.61e-05  Line search: understep
  GDM::   220 failed line searches.  Resetting
  241   -3343.9900888013      1.61e-05  Line search: understep
  GDM::   221 failed line searches.  Resetting
  242   -3343.9900888013      1.61e-05  Line search: understep
  GDM::   222 failed line searches.  Resetting
  243   -3343.9900888013      1.61e-05  Line search: understep
  GDM::   223 failed line searches.  Resetting
  244   -3343.9900888013      1.61e-05  Line search: understep
  GDM::   224 failed line searches.  Resetting
  245   -3343.9900888013      1.61e-05  Line search: understep
  GDM::   225 failed line searches.  Resetting
  246   -3343.9900888013      1.61e-05  Line search: understep
  GDM::   226 failed line searches.  Resetting
  247   -3343.9900888013      1.61e-05  Line search: understep
  GDM::   227 failed line searches.  Resetting
  248   -3343.9900888013      1.61e-05  Line search: understep
  GDM::   228 failed line searches.  Resetting
  249   -3343.9900888013      1.61e-05  Line search: understep
  GDM::   229 failed line searches.  Resetting
  250   -3343.9900888013      1.61e-05  Line search: understep
  GDM::   230 failed line searches.  Resetting
  251   -3343.9900888013      1.61e-05  Line search: understep
  GDM::   231 failed line searches.  Resetting
  252   -3343.9900888013      1.61e-05  Line search: understep
  GDM::   232 failed line searches.  Resetting
  253   -3343.9900888013      1.61e-05  Line search: understep
  GDM::   233 failed line searches.  Resetting
  254   -3343.9900888013      1.61e-05  Line search: understep
  GDM::   234 failed line searches.  Resetting
  255   -3343.9900888013      1.61e-05  Line search: understep
  GDM::   235 failed line searches.  Resetting
  256   -3343.9900888013      1.61e-05  Line search: understep
  GDM::   236 failed line searches.  Resetting
  257   -3343.9900888013      1.61e-05  Line search: understep
  GDM::   237 failed line searches.  Resetting
  258   -3343.9900888013      1.61e-05  Line search: understep
  GDM::   238 failed line searches.  Resetting
  259   -3343.9900888013      1.61e-05  Line search: understep
  GDM::   239 failed line searches.  Resetting
  260   -3343.9900888013      1.61e-05  Line search: understep
  GDM::   240 failed line searches.  Resetting
  261   -3343.9900888013      1.61e-05  Line search: understep
  GDM::   241 failed line searches.  Resetting
  262   -3343.9900888013      1.61e-05  Line search: understep
  GDM::   242 failed line searches.  Resetting
  263   -3343.9900888013      1.61e-05  Line search: understep
  GDM::   243 failed line searches.  Resetting
  264   -3343.9900888013      1.61e-05  Line search: understep
  GDM::   244 failed line searches.  Resetting
  265   -3343.9900888013      1.61e-05  Line search: understep
  GDM::   245 failed line searches.  Resetting
  266   -3343.9900888013      1.61e-05  Line search: understep
  GDM::   246 failed line searches.  Resetting
  267   -3343.9900888013      1.61e-05  Line search: understep
  GDM::   247 failed line searches.  Resetting
  268   -3343.9900888013      1.61e-05  Line search: understep
  GDM::   248 failed line searches.  Resetting
  269   -3343.9900888013      1.61e-05  Line search: understep
  GDM::   249 failed line searches.  Resetting
  270   -3343.9900888013      1.61e-05  Line search: understep
  GDM::   250 failed line searches.  Resetting
  271   -3343.9900888013      1.61e-05  Line search: understep
  GDM::   251 failed line searches.  Resetting
  272   -3343.9900888013      1.61e-05  Line search: understep
  GDM::   252 failed line searches.  Resetting
  273   -3343.9900888013      1.61e-05  Line search: understep
  GDM::   253 failed line searches.  Resetting
  274   -3343.9900888013      1.61e-05  Line search: understep
  GDM::   254 failed line searches.  Resetting
  275   -3343.9900888013      1.61e-05  Line search: understep
  GDM::   255 failed line searches.  Resetting
  276   -3343.9900888013      1.61e-05  Line search: understep
  GDM::   256 failed line searches.  Resetting
  277   -3343.9900888013      1.61e-05  Line search: understep
  GDM::   257 failed line searches.  Resetting
  278   -3343.9900888013      1.61e-05  Line search: understep
  GDM::   258 failed line searches.  Resetting
  279   -3343.9900888013      1.61e-05  Line search: understep
  GDM::   259 failed line searches.  Resetting
  280   -3343.9900888013      1.61e-05  Line search: understep
  GDM::   260 failed line searches.  Resetting
  281   -3343.9900888013      1.61e-05  Line search: understep
  GDM::   261 failed line searches.  Resetting
  282   -3343.9900888013      1.61e-05  Line search: understep
  GDM::   262 failed line searches.  Resetting
  283   -3343.9900888013      1.61e-05  Line search: understep
  GDM::   263 failed line searches.  Resetting
  284   -3343.9900888013      1.61e-05  Line search: understep
  GDM::   264 failed line searches.  Resetting
  285   -3343.9900888013      1.61e-05  Line search: understep
  GDM::   265 failed line searches.  Resetting
  286   -3343.9900888013      1.61e-05  Line search: understep
  GDM::   266 failed line searches.  Resetting
  287   -3343.9900888013      1.61e-05  Line search: understep
  GDM::   267 failed line searches.  Resetting
  288   -3343.9900888013      1.61e-05  Line search: understep
  GDM::   268 failed line searches.  Resetting
  289   -3343.9900888013      1.61e-05  Line search: understep
  GDM::   269 failed line searches.  Resetting
  290   -3343.9900888013      1.61e-05  Line search: understep
  GDM::   270 failed line searches.  Resetting
  291   -3343.9900888013      1.61e-05  Line search: understep
  GDM::   271 failed line searches.  Resetting
  292   -3343.9900888013      1.61e-05  Line search: understep
  GDM::   272 failed line searches.  Resetting
  293   -3343.9900888013      1.61e-05  Line search: understep
  GDM::   273 failed line searches.  Resetting
  294   -3343.9900888013      1.61e-05  Line search: understep
  GDM::   274 failed line searches.  Resetting
  295   -3343.9900888013      1.61e-05  Line search: understep
  GDM::   275 failed line searches.  Resetting
  296   -3343.9900888013      1.61e-05  Line search: understep
  GDM::   276 failed line searches.  Resetting
  297   -3343.9900888013      1.61e-05  Line search: understep
  GDM::   277 failed line searches.  Resetting
  298   -3343.9900888013      1.61e-05  Line search: understep
  GDM::   278 failed line searches.  Resetting
  299   -3343.9900888013      1.61e-05  Line search: understep
  GDM::   279 failed line searches.  Resetting
  300   -3343.9900888013      1.61e-05  Line search: understep
  GDM::   280 failed line searches.  Resetting
  301   -3343.9900888013      1.61e-05  Line search: understep
  GDM::   281 failed line searches.  Resetting
  302   -3343.9900888013      1.61e-05  Line search: understep
  GDM::   282 failed line searches.  Resetting
  303   -3343.9900888013      1.61e-05  Line search: understep
  GDM::   283 failed line searches.  Resetting
  304   -3343.9900888013      1.61e-05  Line search: understep
  GDM::   284 failed line searches.  Resetting
  305   -3343.9900888013      1.61e-05  Line search: understep
  GDM::   285 failed line searches.  Resetting
  306   -3343.9900888013      1.61e-05  Line search: understep
  GDM::   286 failed line searches.  Resetting
  307   -3343.9900888013      1.61e-05  Line search: understep
  GDM::   287 failed line searches.  Resetting
  308   -3343.9900888013      1.61e-05  Line search: understep
  GDM::   288 failed line searches.  Resetting
  309   -3343.9900888013      1.61e-05  Line search: understep
  GDM::   289 failed line searches.  Resetting
  310   -3343.9900888013      1.61e-05  Line search: understep
  GDM::   290 failed line searches.  Resetting
  311   -3343.9900888013      1.61e-05  Line search: understep
  GDM::   291 failed line searches.  Resetting
  312   -3343.9900888013      1.61e-05  Line search: understep
  GDM::   292 failed line searches.  Resetting
  313   -3343.9900888013      1.61e-05  Line search: understep
  GDM::   293 failed line searches.  Resetting
  314   -3343.9900888013      1.61e-05  Line search: understep
  GDM::   294 failed line searches.  Resetting
  315   -3343.9900888013      1.61e-05  Line search: understep
  GDM::   295 failed line searches.  Resetting
  316   -3343.9900888013      1.61e-05  Line search: understep
  GDM::   296 failed line searches.  Resetting
  317   -3343.9900888013      1.61e-05  Line search: understep
  GDM::   297 failed line searches.  Resetting
  318   -3343.9900888013      1.61e-05  Line search: understep
  GDM::   298 failed line searches.  Resetting
  319   -3343.9900888013      1.61e-05  Line search: understep
  GDM::   299 failed line searches.  Resetting
  320   -3343.9900888013      1.61e-05  Line search: understep
  GDM::   300 failed line searches.  Resetting
  321   -3343.9900888013      1.61e-05  Line search: understep
  GDM::   301 failed line searches.  Resetting
  322   -3343.9900888013      1.61e-05  Line search: understep
  GDM::   302 failed line searches.  Resetting
  323   -3343.9900888013      1.61e-05  Line search: understep
  GDM::   303 failed line searches.  Resetting
  324   -3343.9900888013      1.61e-05  Line search: understep
  GDM::   304 failed line searches.  Resetting
  325   -3343.9900888013      1.61e-05  Line search: understep
  GDM::   305 failed line searches.  Resetting
  326   -3343.9900888013      1.61e-05  Line search: understep
  GDM::   306 failed line searches.  Resetting
  327   -3343.9900888013      1.61e-05  Line search: understep
  GDM::   307 failed line searches.  Resetting
  328   -3343.9900888013      1.61e-05  Line search: understep
  GDM::   308 failed line searches.  Resetting
  329   -3343.9900888013      1.61e-05  Line search: understep
  GDM::   309 failed line searches.  Resetting
  330   -3343.9900888013      1.61e-05  Line search: understep
  GDM::   310 failed line searches.  Resetting
  331   -3343.9900888013      1.61e-05  Line search: understep
  GDM::   311 failed line searches.  Resetting
  332   -3343.9900888013      1.61e-05  Line search: understep
  GDM::   312 failed line searches.  Resetting
  333   -3343.9900888013      1.61e-05  Line search: understep
  GDM::   313 failed line searches.  Resetting
  334   -3343.9900888013      1.61e-05  Line search: understep
  GDM::   314 failed line searches.  Resetting
  335   -3343.9900888013      1.61e-05  Line search: understep
  GDM::   315 failed line searches.  Resetting
  336   -3343.9900888013      1.61e-05  Line search: understep
  GDM::   316 failed line searches.  Resetting
  337   -3343.9900888013      1.61e-05  Line search: understep
  GDM::   317 failed line searches.  Resetting
  338   -3343.9900888013      1.61e-05  Line search: understep
  GDM::   318 failed line searches.  Resetting
  339   -3343.9900888013      1.61e-05  Line search: understep
  GDM::   319 failed line searches.  Resetting
  340   -3343.9900888013      1.61e-05  Line search: understep
  GDM::   320 failed line searches.  Resetting
  341   -3343.9900888013      1.61e-05  Line search: understep
  GDM::   321 failed line searches.  Resetting
  342   -3343.9900888013      1.61e-05  Line search: understep
  GDM::   322 failed line searches.  Resetting
  343   -3343.9900888013      1.61e-05  Line search: understep
  GDM::   323 failed line searches.  Resetting
  344   -3343.9900888013      1.61e-05  Line search: understep
  GDM::   324 failed line searches.  Resetting
  345   -3343.9900888013      1.61e-05  Line search: understep
  GDM::   325 failed line searches.  Resetting
  346   -3343.9900888013      1.61e-05  Line search: understep
  GDM::   326 failed line searches.  Resetting
  347   -3343.9900888013      1.61e-05  Line search: understep
  GDM::   327 failed line searches.  Resetting
  348   -3343.9900888013      1.61e-05  Line search: understep
  GDM::   328 failed line searches.  Resetting
  349   -3343.9900888013      1.61e-05  Line search: understep
  GDM::   329 failed line searches.  Resetting
  350   -3343.9900888013      1.61e-05  Line search: understep
  GDM::   330 failed line searches.  Resetting
  351   -3343.9900888013      1.61e-05  Line search: understep
  GDM::   331 failed line searches.  Resetting
  352   -3343.9900888013      1.61e-05  Line search: understep
  GDM::   332 failed line searches.  Resetting
  353   -3343.9900888013      1.61e-05  Line search: understep
  GDM::   333 failed line searches.  Resetting
  354   -3343.9900888013      1.61e-05  Line search: understep
  GDM::   334 failed line searches.  Resetting
  355   -3343.9900888013      1.61e-05  Line search: understep
  GDM::   335 failed line searches.  Resetting
  356   -3343.9900888013      1.61e-05  Line search: understep
  GDM::   336 failed line searches.  Resetting
  357   -3343.9900888013      1.61e-05  Line search: understep
  GDM::   337 failed line searches.  Resetting
  358   -3343.9900888013      1.61e-05  Line search: understep
  GDM::   338 failed line searches.  Resetting
  359   -3343.9900888013      1.61e-05  Line search: understep
  GDM::   339 failed line searches.  Resetting
  360   -3343.9900888013      1.61e-05  Line search: understep
  GDM::   340 failed line searches.  Resetting
  361   -3343.9900888013      1.61e-05  Line search: understep
  GDM::   341 failed line searches.  Resetting
  362   -3343.9900888013      1.61e-05  Line search: understep
  GDM::   342 failed line searches.  Resetting
  363   -3343.9900888013      1.61e-05  Line search: understep
  GDM::   343 failed line searches.  Resetting
  364   -3343.9900888013      1.61e-05  Line search: understep
  GDM::   344 failed line searches.  Resetting
  365   -3343.9900888013      1.61e-05  Line search: understep
  GDM::   345 failed line searches.  Resetting
  366   -3343.9900888013      1.61e-05  Line search: understep
  GDM::   346 failed line searches.  Resetting
  367   -3343.9900888013      1.61e-05  Line search: understep
  GDM::   347 failed line searches.  Resetting
  368   -3343.9900888013      1.61e-05  Line search: understep
  GDM::   348 failed line searches.  Resetting
  369   -3343.9900888013      1.61e-05  Line search: understep
  GDM::   349 failed line searches.  Resetting
  370   -3343.9900888013      1.61e-05  Line search: understep
  GDM::   350 failed line searches.  Resetting
  371   -3343.9900888013      1.61e-05  Line search: understep
  GDM::   351 failed line searches.  Resetting
  372   -3343.9900888013      1.61e-05  Line search: understep
  GDM::   352 failed line searches.  Resetting
  373   -3343.9900888013      1.61e-05  Line search: understep
  GDM::   353 failed line searches.  Resetting
  374   -3343.9900888013      1.61e-05  Line search: understep
  GDM::   354 failed line searches.  Resetting
  375   -3343.9900888013      1.61e-05  Line search: understep
  GDM::   355 failed line searches.  Resetting
  376   -3343.9900888013      1.61e-05  Line search: understep
  GDM::   356 failed line searches.  Resetting
  377   -3343.9900888013      1.61e-05  Line search: understep
  GDM::   357 failed line searches.  Resetting
  378   -3343.9900888013      1.61e-05  Line search: understep
  GDM::   358 failed line searches.  Resetting
  379   -3343.9900888013      1.61e-05  Line search: understep
  GDM::   359 failed line searches.  Resetting
  380   -3343.9900888013      1.61e-05  Line search: understep
  GDM::   360 failed line searches.  Resetting
  381   -3343.9900888013      1.61e-05  Line search: understep
  GDM::   361 failed line searches.  Resetting
  382   -3343.9900888013      1.61e-05  Line search: understep
  GDM::   362 failed line searches.  Resetting
  383   -3343.9900888013      1.61e-05  Line search: understep
  GDM::   363 failed line searches.  Resetting
  384   -3343.9900888013      1.61e-05  Line search: understep
  GDM::   364 failed line searches.  Resetting
  385   -3343.9900888013      1.61e-05  Line search: understep
  GDM::   365 failed line searches.  Resetting
  386   -3343.9900888013      1.61e-05  Line search: understep
  GDM::   366 failed line searches.  Resetting
  387   -3343.9900888013      1.61e-05  Line search: understep
  GDM::   367 failed line searches.  Resetting
  388   -3343.9900888013      1.61e-05  Line search: understep
  GDM::   368 failed line searches.  Resetting
  389   -3343.9900888013      1.61e-05  Line search: understep
  GDM::   369 failed line searches.  Resetting
  390   -3343.9900888013      1.61e-05  Line search: understep
  GDM::   370 failed line searches.  Resetting
  391   -3343.9900888013      1.61e-05  Line search: understep
  GDM::   371 failed line searches.  Resetting
  392   -3343.9900888013      1.61e-05  Line search: understep
  GDM::   372 failed line searches.  Resetting
  393   -3343.9900888013      1.61e-05  Line search: understep
  GDM::   373 failed line searches.  Resetting
  394   -3343.9900888013      1.61e-05  Line search: understep
  GDM::   374 failed line searches.  Resetting
  395   -3343.9900888013      1.61e-05  Line search: understep
  GDM::   375 failed line searches.  Resetting
  396   -3343.9900888013      1.61e-05  Line search: understep
  GDM::   376 failed line searches.  Resetting
  397   -3343.9900888013      1.61e-05  Line search: understep
  GDM::   377 failed line searches.  Resetting
  398   -3343.9900888013      1.61e-05  Line search: understep
  GDM::   378 failed line searches.  Resetting
  399   -3343.9900888013      1.61e-05  Line search: understep
  GDM::   379 failed line searches.  Resetting
  400   -3343.9900888013      1.61e-05  Line search: understep
  GDM::   380 failed line searches.  Resetting
  401   -3343.9900888013      1.61e-05  Line search: understep
  GDM::   381 failed line searches.  Resetting
  402   -3343.9900888013      1.61e-05  Line search: understep
  GDM::   382 failed line searches.  Resetting
  403   -3343.9900888013      1.61e-05  Line search: understep
  GDM::   383 failed line searches.  Resetting
  404   -3343.9900888013      1.61e-05  Line search: understep
  GDM::   384 failed line searches.  Resetting
  405   -3343.9900888013      1.61e-05  Line search: understep
  GDM::   385 failed line searches.  Resetting
[...]
  GDM::   1802 failed line searches.  Resetting
 1823   -3343.9900888013      1.61e-05  Line search: understep
  GDM::   1803 failed line searches.  Resetting
 1824   -3343.9900888013      1.61e-05  Line search: understep
  GDM::   1804 failed line searches.  Resetting
 1825   -3343.9900888013      1.61e-05  Line search: understep
  GDM::   1805 failed line searches.  Resetting
 1826   -3343.9900888013      1.61e-05  Line search: understep
  GDM::   1806 failed line searches.  Resetting
 1827   -3343.9900888013      1.61e-05  Line search: understep
  GDM::   1807 failed line searches.  Resetting
 1828   -3343.9900888013      1.61e-05  Line search: understep
  GDM::   1808 failed line searches.  Resetting
 1829   -3343.9900888013      1.61e-05  Line search: understep
  GDM::   1809 failed line searches.  Resetting
 1830   -3343.9900888013      1.61e-05  Line search: understep
  GDM::   1810 failed line searches.  Resetting
 1831   -3343.9900888013      1.61e-05  Line search: understep
  GDM::   1811 failed line searches.  Resetting
 1832   -3343.9900888013      1.61e-05  Line search: understep
  GDM::   1812 failed line searches.  Resetting
 1833   -3343.9900888013      1.61e-05  Line search: understep
  GDM::   1813 failed line searches.  Resetting
 1834   -3343.9900888013      1.61e-05  Line search: understep
  GDM::   1814 failed line searches.  Resetting
 1835   -3343.9900888013      1.61e-05  Line search: understep
  GDM::   1815 failed line searches.  Resetting
 1836   -3343.9900888013      1.61e-05  Line search: understep
  GDM::   1816 failed line searches.  Resetting
 1837   -3343.9900888013      1.61e-05  Line search: understep
  GDM::   1817 failed line searches.  Resetting
 1838   -3343.9900888013      1.61e-05  Line search: understep
  GDM::   1818 failed line searches.  Resetting
 1839   -3343.9900888013      1.61e-05  Line search: understep
  GDM::   1819 failed line searches.  Resetting
 1840   -3343.9900888013      1.61e-05  Line search: understep
  GDM::   1820 failed line searches.  Resetting
 1841   -3343.9900888013      1.61e-05  Line search: understep
  GDM::   1821 failed line searches.  Resetting
 1842   -3343.9900888013      1.61e-05  Line search: understep
  GDM::   1822 failed line searches.  Resetting
 1843   -3343.9900888013      1.61e-05  Line search: understep
  GDM::   1823 failed line searches.  Resetting
 1844   -3343.9900888013      1.61e-05  Line search: understep
  GDM::   1824 failed line searches.  Resetting
 1845   -3343.9900888013      1.61e-05  Line search: understep
  GDM::   1825 failed line searches.  Resetting
 1846   -3343.9900888013      1.61e-05  Line search: understep
  GDM::   1826 failed line searches.  Resetting
 1847   -3343.9900888013      1.61e-05  Line search: understep
  GDM::   1827 failed line searches.  Resetting
 1848   -3343.9900888013      1.61e-05  Line search: understep
  GDM::   1828 failed line searches.  Resetting
 1849   -3343.9900888013      1.61e-05  Line search: understep
  GDM::   1829 failed line searches.  Resetting
 1850   -3343.9900888013      1.61e-05  Line search: understep
  GDM::   1830 failed line searches.  Resetting
 1851   -3343.9900888013      1.61e-05  Line search: understep
  GDM::   1831 failed line searches.  Resetting
 1852   -3343.9900888013      1.61e-05  Line search: understep
  GDM::   1832 failed line searches.  Resetting
 1853   -3343.9900888013      1.61e-05  Line search: understep
  GDM::   1833 failed line searches.  Resetting
 1854   -3343.9900888013      1.61e-05  Line search: understep
  GDM::   1834 failed line searches.  Resetting
 1855   -3343.9900888013      1.61e-05  Line search: understep
  GDM::   1835 failed line searches.  Resetting
 1856   -3343.9900888013      1.61e-05  Line search: understep
  GDM::   1836 failed line searches.  Resetting
 1857   -3343.9900888013      1.61e-05  Line search: understep
  GDM::   1837 failed line searches.  Resetting
 1858   -3343.9900888013      1.61e-05  Line search: understep
  GDM::   1838 failed line searches.  Resetting
 1859   -3343.9900888013      1.61e-05  Line search: understep
  GDM::   1839 failed line searches.  Resetting
 1860   -3343.9900888013      1.61e-05  Line search: understep
  GDM::   1840 failed line searches.  Resetting
 1861   -3343.9900888013      1.61e-05  Line search: understep
  GDM::   1841 failed line searches.  Resetting
 1862   -3343.9900888013      1.61e-05  Line search: understep
  GDM::   1842 failed line searches.  Resetting
 1863   -3343.9900888013      1.61e-05  Line search: understep
  GDM::   1843 failed line searches.  Resetting
 1864   -3343.9900888013      1.61e-05  Line search: understep
  GDM::   1844 failed line searches.  Resetting
 1865   -3343.9900888013      1.61e-05  Line search: understep
  GDM::   1845 failed line searches.  Resetting
 1866   -3343.9900888013      1.61e-05  Line search: understep
  GDM::   1846 failed line searches.  Resetting
 1867   -3343.9900888013      1.61e-05  Line search: understep
  GDM::   1847 failed line searches.  Resetting
 1868   -3343.9900888013      1.61e-05  Line search: understep
  GDM::   1848 failed line searches.  Resetting
 1869   -3343.9900888013      1.61e-05  Line search: understep
  GDM::   1849 failed line searches.  Resetting
 1870   -3343.9900888013      1.61e-05  Line search: understep
  GDM::   1850 failed line searches.  Resetting
 1871   -3343.9900888013      1.61e-05  Line search: understep
  GDM::   1851 failed line searches.  Resetting
 1872   -3343.9900888013      1.61e-05  Line search: understep
  GDM::   1852 failed line searches.  Resetting
 1873   -3343.9900888013      1.61e-05  Line search: understep
  GDM::   1853 failed line searches.  Resetting
 1874   -3343.9900888013      1.61e-05  Line search: understep
  GDM::   1854 failed line searches.  Resetting
 1875   -3343.9900888013      1.61e-05  Line search: understep
  GDM::   1855 failed line searches.  Resetting
 1876   -3343.9900888013      1.61e-05  Line search: understep
  GDM::   1856 failed line searches.  Resetting
 1877   -3343.9900888013      1.61e-05  Line search: understep
  GDM::   1857 failed line searches.  Resetting
 1878   -3343.9900888013      1.61e-05  Line search: understep
  GDM::   1858 failed line searches.  Resetting
 1879   -3343.9900888013      1.61e-05  Line search: understep
  GDM::   1859 failed line searches.  Resetting
 1880   -3343.9900888013      1.61e-05  Line search: understep
  GDM::   1860 failed line searches.  Resetting
 1881   -3343.9900888013      1.61e-05  Line search: understep
  GDM::   1861 failed line searches.  Resetting
 1882   -3343.9900888013      1.61e-05  Line search: understep
  GDM::   1862 failed line searches.  Resetting
 1883   -3343.9900888013      1.61e-05  Line search: understep
  GDM::   1863 failed line searches.  Resetting
 1884   -3343.9900888013      1.61e-05  Line search: understep
  GDM::   1864 failed line searches.  Resetting
 1885   -3343.9900888013      1.61e-05  Line search: understep
  GDM::   1865 failed line searches.  Resetting
 1886   -3343.9900888013      1.61e-05  Line search: understep
  GDM::   1866 failed line searches.  Resetting
 1887   -3343.9900888013      1.61e-05  Line search: understep
  GDM::   1867 failed line searches.  Resetting
 1888   -3343.9900888013      1.61e-05  Line search: understep
  GDM::   1868 failed line searches.  Resetting
 1889   -3343.9900888013      1.61e-05  Line search: understep
  GDM::   1869 failed line searches.  Resetting
 1890   -3343.9900888013      1.61e-05  Line search: understep
  GDM::   1870 failed line searches.  Resetting
 1891   -3343.9900888013      1.61e-05  Line search: understep
  GDM::   1871 failed line searches.  Resetting
 1892   -3343.9900888013      1.61e-05  Line search: understep
  GDM::   1872 failed line searches.  Resetting
 1893   -3343.9900888013      1.61e-05  Line search: understep
  GDM::   1873 failed line searches.  Resetting
 1894   -3343.9900888013      1.61e-05  Line search: understep
  GDM::   1874 failed line searches.  Resetting
 1895   -3343.9900888013      1.61e-05  Line search: understep
  GDM::   1875 failed line searches.  Resetting
 1896   -3343.9900888013      1.61e-05  Line search: understep
  GDM::   1876 failed line searches.  Resetting
 1897   -3343.9900888013      1.61e-05  Line search: understep
  GDM::   1877 failed line searches.  Resetting
 1898   -3343.9900888013      1.61e-05  Line search: understep
  GDM::   1878 failed line searches.  Resetting
 1899   -3343.9900888013      1.61e-05  Line search: understep
  GDM::   1879 failed line searches.  Resetting
 1900   -3343.9900888013      1.61e-05  Line search: understep
  GDM::   1880 failed line searches.  Resetting
 1901   -3343.9900888013      1.61e-05  Line search: understep
  GDM::   1881 failed line searches.  Resetting
 1902   -3343.9900888013      1.61e-05  Line search: understep
  GDM::   1882 failed line searches.  Resetting
 1903   -3343.9900888013      1.61e-05  Line search: understep
  GDM::   1883 failed line searches.  Resetting
 1904   -3343.9900888013      1.61e-05  Line search: understep
  GDM::   1884 failed line searches.  Resetting
 1905   -3343.9900888013      1.61e-05  Line search: understep
  GDM::   1885 failed line searches.  Resetting
 1906   -3343.9900888013      1.61e-05  Line search: understep
  GDM::   1886 failed line searches.  Resetting
 1907   -3343.9900888013      1.61e-05  Line search: understep
  GDM::   1887 failed line searches.  Resetting
 1908   -3343.9900888013      1.61e-05  Line search: understep
  GDM::   1888 failed line searches.  Resetting
 1909   -3343.9900888013      1.61e-05  Line search: understep
  GDM::   1889 failed line searches.  Resetting
 1910   -3343.9900888013      1.61e-05  Line search: understep
  GDM::   1890 failed line searches.  Resetting
 1911   -3343.9900888013      1.61e-05  Line search: understep
  GDM::   1891 failed line searches.  Resetting
 1912   -3343.9900888013      1.61e-05  Line search: understep
  GDM::   1892 failed line searches.  Resetting
 1913   -3343.9900888013      1.61e-05  Line search: understep
  GDM::   1893 failed line searches.  Resetting
 1914   -3343.9900888013      1.61e-05  Line search: understep
  GDM::   1894 failed line searches.  Resetting
 1915   -3343.9900888013      1.61e-05  Line search: understep
  GDM::   1895 failed line searches.  Resetting
 1916   -3343.9900888013      1.61e-05  Line search: understep
  GDM::   1896 failed line searches.  Resetting
 1917   -3343.9900888013      1.61e-05  Line search: understep
  GDM::   1897 failed line searches.  Resetting
 1918   -3343.9900888013      1.61e-05  Line search: understep
  GDM::   1898 failed line searches.  Resetting
 1919   -3343.9900888013      1.61e-05  Line search: understep
  GDM::   1899 failed line searches.  Resetting
 1920   -3343.9900888013      1.61e-05  Line search: understep
  GDM::   1900 failed line searches.  Resetting
 1921   -3343.9900888013      1.61e-05  Line search: understep
  GDM::   1901 failed line searches.  Resetting
 1922   -3343.9900888013      1.61e-05  Line search: understep
  GDM::   1902 failed line searches.  Resetting
 1923   -3343.9900888013      1.61e-05  Line search: understep
  GDM::   1903 failed line searches.  Resetting
 1924   -3343.9900888013      1.61e-05  Line search: understep
  GDM::   1904 failed line searches.  Resetting
 1925   -3343.9900888013      1.61e-05  Line search: understep
  GDM::   1905 failed line searches.  Resetting
 1926   -3343.9900888013      1.61e-05  Line search: understep
  GDM::   1906 failed line searches.  Resetting
 1927   -3343.9900888013      1.61e-05  Line search: understep
  GDM::   1907 failed line searches.  Resetting
 1928   -3343.9900888013      1.61e-05  Line search: understep
  GDM::   1908 failed line searches.  Resetting
 1929   -3343.9900888013      1.61e-05  Line search: understep
  GDM::   1909 failed line searches.  Resetting
 1930   -3343.9900888013      1.61e-05  Line search: understep
  GDM::   1910 failed line searches.  Resetting
 1931   -3343.9900888013      1.61e-05  Line search: understep
  GDM::   1911 failed line searches.  Resetting
 1932   -3343.9900888013      1.61e-05  Line search: understep
  GDM::   1912 failed line searches.  Resetting
 1933   -3343.9900888013      1.61e-05  Line search: understep
  GDM::   1913 failed line searches.  Resetting
 1934   -3343.9900888013      1.61e-05  Line search: understep
  GDM::   1914 failed line searches.  Resetting
 1935   -3343.9900888013      1.61e-05  Line search: understep
  GDM::   1915 failed line searches.  Resetting
 1936   -3343.9900888013      1.61e-05  Line search: understep
  GDM::   1916 failed line searches.  Resetting
 1937   -3343.9900888013      1.61e-05  Line search: understep
  GDM::   1917 failed line searches.  Resetting
 1938   -3343.9900888013      1.61e-05  Line search: understep
  GDM::   1918 failed line searches.  Resetting
 1939   -3343.9900888013      1.61e-05  Line search: understep
  GDM::   1919 failed line searches.  Resetting
 1940   -3343.9900888013      1.61e-05  Line search: understep
  GDM::   1920 failed line searches.  Resetting
 1941   -3343.9900888013      1.61e-05  Line search: understep
  GDM::   1921 failed line searches.  Resetting
 1942   -3343.9900888013      1.61e-05  Line search: understep
  GDM::   1922 failed line searches.  Resetting
 1943   -3343.9900888013      1.61e-05  Line search: understep
  GDM::   1923 failed line searches.  Resetting
 1944   -3343.9900888013      1.61e-05  Line search: understep
  GDM::   1924 failed line searches.  Resetting
 1945   -3343.9900888013      1.61e-05  Line search: understep
  GDM::   1925 failed line searches.  Resetting
 1946   -3343.9900888013      1.61e-05  Line search: understep
  GDM::   1926 failed line searches.  Resetting
 1947   -3343.9900888013      1.61e-05  Line search: understep
  GDM::   1927 failed line searches.  Resetting
 1948   -3343.9900888013      1.61e-05  Line search: understep
  GDM::   1928 failed line searches.  Resetting
 1949   -3343.9900888013      1.61e-05  Line search: understep
  GDM::   1929 failed line searches.  Resetting
 1950   -3343.9900888013      1.61e-05  Line search: understep
  GDM::   1930 failed line searches.  Resetting
 1951   -3343.9900888013      1.61e-05  Line search: understep
  GDM::   1931 failed line searches.  Resetting
 1952   -3343.9900888013      1.61e-05  Line search: understep
  GDM::   1932 failed line searches.  Resetting
 1953   -3343.9900888013      1.61e-05  Line search: understep
  GDM::   1933 failed line searches.  Resetting
 1954   -3343.9900888013      1.61e-05  Line search: understep
  GDM::   1934 failed line searches.  Resetting
 1955   -3343.9900888013      1.61e-05  Line search: understep
  GDM::   1935 failed line searches.  Resetting
 1956   -3343.9900888013      1.61e-05  Line search: understep
  GDM::   1936 failed line searches.  Resetting
 1957   -3343.9900888013      1.61e-05  Line search: understep
  GDM::   1937 failed line searches.  Resetting
 1958   -3343.9900888013      1.61e-05  Line search: understep
  GDM::   1938 failed line searches.  Resetting
 1959   -3343.9900888013      1.61e-05  Line search: understep
  GDM::   1939 failed line searches.  Resetting
 1960   -3343.9900888013      1.61e-05  Line search: understep
  GDM::   1940 failed line searches.  Resetting
 1961   -3343.9900888013      1.61e-05  Line search: understep
  GDM::   1941 failed line searches.  Resetting
 1962   -3343.9900888013      1.61e-05  Line search: understep
  GDM::   1942 failed line searches.  Resetting
 1963   -3343.9900888013      1.61e-05  Line search: understep
  GDM::   1943 failed line searches.  Resetting
 1964   -3343.9900888013      1.61e-05  Line search: understep
  GDM::   1944 failed line searches.  Resetting
 1965   -3343.9900888013      1.61e-05  Line search: understep
  GDM::   1945 failed line searches.  Resetting
 1966   -3343.9900888013      1.61e-05  Line search: understep
  GDM::   1946 failed line searches.  Resetting
 1967   -3343.9900888013      1.61e-05  Line search: understep
  GDM::   1947 failed line searches.  Resetting
 1968   -3343.9900888013      1.61e-05  Line search: understep
  GDM::   1948 failed line searches.  Resetting
 1969   -3343.9900888013      1.61e-05  Line search: understep
  GDM::   1949 failed line searches.  Resetting
 1970   -3343.9900888013      1.61e-05  Line search: understep
  GDM::   1950 failed line searches.  Resetting
 1971   -3343.9900888013      1.61e-05  Line search: understep
  GDM::   1951 failed line searches.  Resetting
 1972   -3343.9900888013      1.61e-05  Line search: understep
  GDM::   1952 failed line searches.  Resetting
 1973   -3343.9900888013      1.61e-05  Line search: understep
  GDM::   1953 failed line searches.  Resetting
 1974   -3343.9900888013      1.61e-05  Line search: understep
  GDM::   1954 failed line searches.  Resetting
 1975   -3343.9900888013      1.61e-05  Line search: understep
  GDM::   1955 failed line searches.  Resetting
 1976   -3343.9900888013      1.61e-05  Line search: understep
  GDM::   1956 failed line searches.  Resetting
 1977   -3343.9900888013      1.61e-05  Line search: understep
  GDM::   1957 failed line searches.  Resetting
 1978   -3343.9900888013      1.61e-05  Line search: understep
  GDM::   1958 failed line searches.  Resetting
 1979   -3343.9900888013      1.61e-05  Line search: understep
  GDM::   1959 failed line searches.  Resetting
 1980   -3343.9900888013      1.61e-05  Line search: understep
  GDM::   1960 failed line searches.  Resetting
 1981   -3343.9900888013      1.61e-05  Line search: understep
  GDM::   1961 failed line searches.  Resetting
 1982   -3343.9900888013      1.61e-05  Line search: understep
  GDM::   1962 failed line searches.  Resetting
 1983   -3343.9900888013      1.61e-05  Line search: understep
  GDM::   1963 failed line searches.  Resetting
 1984   -3343.9900888013      1.61e-05  Line search: understep
  GDM::   1964 failed line searches.  Resetting
 1985   -3343.9900888013      1.61e-05  Line search: understep
  GDM::   1965 failed line searches.  Resetting
 1986   -3343.9900888013      1.61e-05  Line search: understep
  GDM::   1966 failed line searches.  Resetting
 1987   -3343.9900888013      1.61e-05  Line search: understep
  GDM::   1967 failed line searches.  Resetting
 1988   -3343.9900888013      1.61e-05  Line search: understep
  GDM::   1968 failed line searches.  Resetting
 1989   -3343.9900888013      1.61e-05  Line search: understep
  GDM::   1969 failed line searches.  Resetting
 1990   -3343.9900888013      1.61e-05  Line search: understep
  GDM::   1970 failed line searches.  Resetting
 1991   -3343.9900888013      1.61e-05  Line search: understep
  GDM::   1971 failed line searches.  Resetting
 1992   -3343.9900888013      1.61e-05  Line search: understep
  GDM::   1972 failed line searches.  Resetting
 1993   -3343.9900888013      1.61e-05  Line search: understep
  GDM::   1973 failed line searches.  Resetting
 1994   -3343.9900888013      1.61e-05  Line search: understep
  GDM::   1974 failed line searches.  Resetting
 1995   -3343.9900888013      1.61e-05  Line search: understep
  GDM::   1975 failed line searches.  Resetting
 1996   -3343.9900888013      1.61e-05  Line search: understep
  GDM::   1976 failed line searches.  Resetting
 1997   -3343.9900888013      1.61e-05  Line search: understep
  GDM::   1977 failed line searches.  Resetting
 1998   -3343.9900888013      1.61e-05  Line search: understep
  GDM::   1978 failed line searches.  Resetting
 1999   -3343.9900888013      1.61e-05  Line search: understep
  GDM::   1979 failed line searches.  Resetting
 2000   -3343.9900888013      1.61e-05  Line search: understep
gen_scfman_exception: SCF failed to converge

 Q-Chem fatal error occurred in module libgscf/gen_scfman/gen_scfman_main.C, line 164:

 Error in gen_scfman


 Please submit a crash report at q-chem.com/reporter 
 
 
