                  Welcome to Q-Chem
     A Quantum Leap Into The Future Of Chemistry


 Q-Chem 5.2 (devel), Q-Chem, Inc., Pleasanton, CA (2019)

 Yihan Shao,  Zhengting Gan,  E. Epifanovsky,  A. T. B. Gilbert,  M. Wormit,  
 J. Kussmann,  A. W. Lange,  A. Behn,  Jia Deng,  Xintian Feng,  D. Ghosh,  
 M. Goldey,  P. R. Horn,  L. D. Jacobson,  I. Kaliman,  T. Kus,  A. Landau,  
 Jie Liu,  E. I. Proynov,  R. M. Richard,  R. P. Steele,  E. J. Sundstrom,  
 H. L. Woodcock III,  P. M. Zimmerman,  D. Zuev,  B. Albrecht,  E. Alguire,  
 S. A. Baeppler,  D. Barton,  Z. Benda,  Y. A. Bernard,  E. J. Berquist,  
 K. B. Bravaya,  H. Burton,  D. Casanova,  Chun-Min Chang,  Yunqing Chen,  
 A. Chien,  K. D. Closser,  M. P. Coons,  S. Coriani,  S. Dasgupta,  
 A. L. Dempwolff,  M. Diedenhofen,  Hainam Do,  R. G. Edgar,  Po-Tung Fang,  
 S. Faraji,  S. Fatehi,  Qingguo Feng,  K. D. Fenk,  J. Fosso-Tande,  
 J. Gayvert,  Qinghui Ge,  A. Ghysels,  G. Gidofalvi,  J. Gomes,  
 J. Gonthier,  A. Gunina,  D. Hait,  M. W. D. Hanson-Heine,  
 P. H. P. Harbach,  A. W. Hauser,  M. F. Herbst,  J. E. Herr,  
 E. G. Hohenstein,  Z. C. Holden,  Kerwin Hui,  B. C. Huynh,  T.-C. Jagau,  
 Hyunjun Ji,  B. Kaduk,  K. Khistyaev,  Jaehoon Kim,  P. Klunzinger,  K. Koh,  
 D. Kosenkov,  L. Koulias,  T. Kowalczyk,  C. M. Krauter,  A. Kunitsa,  
 Ka Un Lao,  A. Laurent,  K. V. Lawler,  Joonho Lee,  D. Lefrancois,  
 S. Lehtola,  D. S. Levine,  Yi-Pei Li,  You-Sheng Lin,  Fenglai Liu,  
 E. Livshits,  A. Luenser,  P. Manohar,  E. Mansoor,  S. F. Manzer,  
 Shan-Ping Mao,  Yuezhi Mao,  N. Mardirossian,  A. V. Marenich,  
 T. Markovich,  L. A. Martinez-Martinez,  S. A. Maurer,  N. J. Mayhall,  
 S. C. McKenzie,  J.-M. Mewes,  P. Morgante,  A. F. Morrison,  
 J. W. Mullinax,  K. Nanda,  T. S. Nguyen-Beck,  R. Olivares-Amaya,  
 J. A. Parkhill,  Zheng Pei,  T. M. Perrine,  F. Plasser,  P. Pokhilko,  
 S. Prager,  A. Prociuk,  E. Ramos,  D. R. Rehn,  F. Rob,  M. Scheurer,  
 M. Schneider,  N. Sergueev,  S. M. Sharada,  S. Sharma,  D. W. Small,  
 T. Stauch,  T. Stein,  Yu-Chuan Su,  A. J. W. Thom,  A. Tkatchenko,  
 T. Tsuchimochi,  N. M. Tubman,  L. Vogt,  M. L. Vidal,  O. Vydrov,  
 M. A. Watson,  J. Wenzel,  M. de Wergifosse,  T. A. Wesolowski,  A. White,  
 J. Witte,  A. Yamada,  Jun Yang,  K. Yao,  S. Yeganeh,  S. R. Yost,  
 Zhi-Qiang You,  A. Zech,  Igor Ying Zhang,  Xing Zhang,  Yan Zhao,  
 Ying Zhu,  B. R. Brooks,  G. K. L. Chan,  C. J. Cramer,  M. S. Gordon,  
 W. J. Hehre,  A. Klamt,  M. W. Schmidt,  C. D. Sherrill,  D. G. Truhlar,  
 A. Aspuru-Guzik,  R. Baer,  A. T. Bell,  N. A. Besley,  Jeng-Da Chai,  
 A. E. DePrince, III,  R. A. DiStasio Jr.,  A. Dreuw,  B. D. Dunietz,  
 T. R. Furlani,  Chao-Ping Hsu,  Yousung Jung,  Jing Kong,  D. S. Lambrecht,  
 WanZhen Liang,  C. Ochsenfeld,  V. A. Rassolov,  L. V. Slipchenko,  
 J. E. Subotnik,  T. Van Voorhis,  J. M. Herbert,  A. I. Krylov,  
 P. M. W. Gill,  M. Head-Gordon

 Contributors to earlier versions of Q-Chem not listed above: 
 R. D. Adamson,  B. Austin,  J. Baker,  G. J. O. Beran,  K. Brandhorst,  
 S. T. Brown,  E. F. C. Byrd,  A. K. Chakraborty,  C.-L. Cheng,  
 Siu Hung Chien,  D. M. Chipman,  D. L. Crittenden,  H. Dachsel,  
 R. J. Doerksen,  A. D. Dutoi,  L. Fusti-Molnar,  W. A. Goddard III,  
 A. Golubeva-Zadorozhnaya,  S. R. Gwaltney,  G. Hawkins,  A. Heyden,  
 S. Hirata,  G. Kedziora,  F. J. Keil,  C. Kelley,  Jihan Kim,  R. A. King,  
 R. Z. Khaliullin,  P. P. Korambath,  W. Kurlancheek,  A. M. Lee,  M. S. Lee,  
 S. V. Levchenko,  Ching Yeh Lin,  D. Liotard,  R. C. Lochan,  I. Lotan,  
 P. E. Maslen,  N. Nair,  D. P. O'Neill,  D. Neuhauser,  E. Neuscamman,  
 C. M. Oana,  R. Olson,  B. Peters,  R. Peverati,  P. A. Pieniazek,  
 Y. M. Rhee,  J. Ritchie,  M. A. Rohrdanz,  E. Rosta,  N. J. Russ,  
 H. F. Schaefer III,  N. E. Schultz,  N. Shenvi,  A. C. Simmonett,  A. Sodt,  
 D. Stuck,  K. S. Thanthiriwatte,  V. Vanovschi,  Tao Wang,  A. Warshel,  
 C. F. Williams,  Q. Wu,  X. Xu,  W. Zhang

 Please cite Q-Chem as follows:
 Y. Shao et al., Mol. Phys. 113, 184-215 (2015)
 DOI: 10.1080/00268976.2014.952696

 Q-Chem 5.2.0 for Intel X86 EM64T Linux

 Parts of Q-Chem use Armadillo 8.300.2 (Tropical Shenanigans).
 http://arma.sourceforge.net/

 Q-Chem begins on Fri Dec  9 16:22:57 2022  

Host: 
0

     Scratch files written to /lscratch/ccprak16/va-s2-py2-1_471440.Meister/qchem12948//
NAlpha2: 202
NElect   202
Mult     1

Checking the input file for inconsistencies... 	...done.

--------------------------------------------------------------
User input:
--------------------------------------------------------------
$molecule
1 1
  V   -1.3928428    3.4276916    1.7285684
  N   -1.4007803    5.4290640    2.1024849
  N   -1.3846956    1.4069223    1.3509550
  S   -3.2854010    3.2424194    3.0993454
  S   -2.9089147    3.4927599   -0.1127925
 Cl    0.0537924    3.2673202    3.5715473
 Cl    0.4393618    3.5835570    0.2587633
  C   -0.3068783    6.2027752    1.8300081
  C   -0.2755596    7.5359338    2.2089901
  C   -1.3716523    8.0882040    2.8538916
  C   -2.4804660    7.2950218    3.1260235
  C   -2.4613772    5.9422468    2.7691445
  C   -2.2484971    0.8772659    0.4200157
  C   -2.2156301   -0.4940952    0.1489177
  C   -1.2825523   -1.2999418    0.7903532
  C   -0.4029913   -0.7432398    1.7033117
  C   -0.4686989    0.6091689    1.9787051
  C   -3.2253688    1.7255830   -0.3776057
  C   -4.5406343    3.6849421    0.7335825
  C   -4.7416419    2.9745863    2.0915548
  C   -3.6029201    5.0736186    3.1824408
  H    0.5579589    5.7944546    1.3596643
  H    0.6059944    8.1278024    2.0147412
  H   -1.3517944    9.1207787    3.1637826
  H   -3.3268561    7.7154534    3.6489407
  H   -2.8867631   -0.9273423   -0.5779844
  H   -1.2276686   -2.3526555    0.5684542
  H    0.3404559   -1.3503594    2.1967523
  H    0.2303148    1.0056713    2.6733142
  H   -4.2513372    1.4070166   -0.1101090
  H   -3.0998074    1.5275616   -1.4564302
  H   -5.3631395    3.3749763    0.0622383
  H   -4.6677957    4.7674831    0.7647144
  H   -4.8499405    1.8808606    1.9483916
  H   -5.6622725    3.3273634    2.5988651
  H   -3.8958614    5.3117676    4.2168842
  H   -4.4719845    5.4317242    2.6289040
$end

$rem
jobtype opt
method hf
basis 6-31g
scf_convergence 4
max_scf_cycles 2000
scf_algorithm diis_gdm
threads 8
mem_total 100000
mem_static 10000
!QSYS wt=24h
$end
--------------------------------------------------------------
 ----------------------------------------------------------------
             Standard Nuclear Orientation (Angstroms)
    I     Atom           X                Y                Z
 ----------------------------------------------------------------
    1      V      -0.0408023095    -0.3972806716     0.0181476542
    2      N      -2.0667229658    -0.3541872351     0.2160276346
    3      N       2.0047728123    -0.4409156748    -0.1815652096
    4      S      -0.2355964960     1.3258919242    -1.5591485584
    5      S       0.4213967777     1.3121361665     1.6173924544
    6      Cl     -0.4115545040    -2.0415235624    -1.6171051519
    7      Cl      0.2103120510    -2.0508097267     1.6747640832
    8      C      -2.7396466472    -1.3816135419     0.8169129116
    9      C      -4.1257548099    -1.4034518196     0.8290504989
   10      C      -4.8300142066    -0.3641357882     0.2406965115
   11      C      -4.1382139053     0.6774001960    -0.3669849275
   12      C      -2.7397636117     0.6460105059    -0.3998279985
   13      C       2.7790580225     0.4986114885     0.4596118614
   14      C       4.1712459915     0.4434644452     0.3413870983
   15      C       4.7596645202    -0.5840031953    -0.3863053552
   16      C       3.9643583226    -1.5361936205    -1.0010079975
   17      C       2.5893560320    -1.4496151151    -0.8959310319
   18      C       2.1938682862     1.5882450242     1.3429984407
   19      C       0.0095671461     2.8478118151     0.6751132236
   20      C       0.3123842747     2.8722239843    -0.8404078148
   21      C      -2.0148758479     1.7017779529    -1.1668624186
   22      H      -2.2210861414    -2.2048136641     1.2520323730
   23      H      -4.6447626449    -2.2354027733     1.2803453110
   24      H      -5.9081547019    -0.3784661303     0.2339888370
   25      H      -4.6832330277     1.4769971103    -0.8467559778
   26      H       4.7946981804     1.1730009366     0.8369605966
   27      H       5.8320524687    -0.6542852923    -0.4604810629
   28      H       4.4045759484    -2.3515944123    -1.5542905331
   29      H       2.0100556612    -2.2047156372    -1.3676834985
   30      H       2.4308589343     2.5660279721     0.8810177776
   31      H       2.6853379127     1.5737868233     2.3314765682
   32      H       0.5000127228     3.7263234699     1.1344355993
   33      H      -1.0376015813     3.0118478507     0.9311680397
   34      H       1.4030611672     2.9538758964    -1.0198989762
   35      H      -0.1628774611     3.7446974065    -1.3326400106
   36      H      -2.5314446637     1.8888638451    -2.1211989561
   37      H      -2.1984727919     2.6390548871    -0.6398712877
 ----------------------------------------------------------------
 Molecular Point Group                 C1    NOp =  1
 Largest Abelian Subgroup              C1    NOp =  1
 Nuclear Repulsion Energy =        2954.12977287 hartrees
 There are      101 alpha and      101 beta electrons
 Requested basis set is 6-31G
 There are 103 shells and 257 basis functions

 Total QAlloc Memory Limit 100000 MB
 Mega-Array Size      9776 MB
 MEM_STATIC part     10000 MB
 A cutoff of  1.0D-08 yielded   3142 shell pairs
 There are     23595 function pairs
 Smallest overlap matrix eigenvalue = 9.36E-04

 Scale SEOQF with 1.000000e-02/1.000000e-01/1.000000e-01

 Standard Electronic Orientation quadrupole field applied
 Nucleus-field energy     =     0.0000000122 hartrees
 Guess from superposition of atomic densities
 Warning:  Energy on first SCF cycle will be non-variational
 SAD guess density has 203.008463 electrons

 -----------------------------------------------------------------------
  General SCF calculation program by
  Eric Jon Sundstrom, Paul Horn, Yuezhi Mao, Dmitri Zuev, Alec White,
  David Stuck, Shaama M.S., Shane Yost, Joonho Lee, David Small,
  Daniel Levine, Susi Lehtola, Hugh Burton, Evgeny Epifanovsky
 -----------------------------------------------------------------------
 Hartree-Fock
 using 8 threads for integral computing
 -------------------------------------------------------
 OpenMP Integral computing Module                
 Release: version 2.0, May 2017, Q-Chem Inc. Pleasanton 
 -------------------------------------------------------
 A restricted SCF calculation will be
 performed using DIIS, GDM
 SCF converges when RMS gradient is below 1.0e-04
 ---------------------------------------
  Cycle       Energy         DIIS error
 ---------------------------------------
    1   -3312.8588764809      7.95e-02  
    2   -3304.2449951652      5.93e-03  Done DIIS. Switching to GDM
 ---------------------------------------
  Cycle       Energy        RMS Gradient
 ---------------------------------------
    1   -3304.2449951652      1.27e-01   Descent step
    2   -3304.5560683026      5.79e-02   Dog-leg BFGS step
    3   -3304.6670710592      1.85e-02   Normal BFGS step
    4   -3304.6788516873      7.33e-03   Normal BFGS step
    5   -3304.6810307796      2.27e-03   Normal BFGS step
    6   -3304.6813028624      1.47e-03   Normal BFGS step
    7   -3304.6813923121      1.26e-03   Normal BFGS step
    8   -3304.6814677760      8.80e-04   Normal BFGS step
    9   -3304.6815371891      9.32e-04   Normal BFGS step
   10   -3304.6815994248      9.51e-04   Normal BFGS step
   11   -3304.6816432693      1.00e-03   Normal BFGS step
   12   -3304.6816878847      1.03e-03   Normal BFGS step
   13   -3304.6817580356      1.10e-03   Normal BFGS step
   14   -3304.6819066728      1.50e-03   Normal BFGS step
   15   -3304.6822102903      2.63e-03   Normal BFGS step
   16   -3304.6826114846      3.82e-03   Normal BFGS step
   17   -3304.6831101906      3.23e-03   Normal BFGS step
   18   -3304.6835591676      1.46e-03   Normal BFGS step
   19   -3304.6836206611      1.22e-03   Normal BFGS step
   20   -3304.6836659767      1.02e-03   Normal BFGS step
   21   -3304.6836882108      7.33e-04   Normal BFGS step
   22   -3304.6837039135      4.51e-04   Normal BFGS step
   23   -3304.6837144601      6.11e-04   Normal BFGS step
   24   -3304.6837199176      4.14e-04   Normal BFGS step
   25   -3304.6837205727      2.03e-04   Normal BFGS step
   26   -3304.6837215001      1.81e-04   Normal BFGS step
   27   -3304.6837231932      1.78e-04   Normal BFGS step
   28   -3304.6837257969      2.63e-04   Normal BFGS step
   29   -3304.6837299624      2.01e-04   Normal BFGS step
   30   -3304.6837361074      2.43e-04   Normal BFGS step
   31   -3304.6837455127      3.28e-04   Normal BFGS step
   32   -3304.6837594968      4.19e-04   Normal BFGS step
   33   -3304.6837739450      4.27e-04   Normal BFGS step
   34   -3304.6837832670      2.37e-04   Normal BFGS step
   35   -3304.6837882343      8.27e-05  Convergence criterion met
 ---------------------------------------
 SCF time:   CPU 333.05s  wall 41.00s 
 SCF   energy in the final basis set =    -3304.6837882343
 Total energy in the final basis set =    -3304.6837882343
 
 --------------------------------------------------------------
 
                    Orbital Energies (a.u.)
 --------------------------------------------------------------
 
 Alpha MOs
 -- Occupied --
********-104.8331-104.8298 -92.1322 -92.1306 -24.1587 -20.3241 -20.3070
-20.2912 -15.7556 -15.7516 -11.4643 -11.4624 -11.4557 -11.4493 -11.4464
-11.4426 -11.4260 -11.4254 -11.4018 -11.4016 -11.3883 -11.3874 -11.3740
-11.3730 -10.5743 -10.5708  -9.1550  -9.1545  -8.0420  -8.0401  -8.0400
 -8.0385  -8.0367  -8.0364  -6.8357  -6.8354  -6.8347  -6.8342  -6.8326
 -6.8320  -3.4123  -2.2580  -2.2426  -2.2311  -1.4319  -1.4246  -1.3170
 -1.2679  -1.2377  -1.2357  -1.2237  -1.1906  -1.1415  -1.1111  -1.1017
 -1.0979  -1.0596  -1.0144  -1.0071  -0.9882  -0.9721  -0.9554  -0.8667
 -0.8627  -0.8377  -0.8178  -0.8109  -0.8078  -0.7881  -0.7869  -0.7689
 -0.7584  -0.7512  -0.7441  -0.7416  -0.7356  -0.7294  -0.6974  -0.6932
 -0.6777  -0.6678  -0.6642  -0.6510  -0.6456  -0.6377  -0.6143  -0.6034
 -0.5966  -0.5767  -0.5677  -0.5485  -0.5406  -0.5325  -0.5163  -0.5085
 -0.4912  -0.4891  -0.4819  -0.4767  -0.4723
 -- Virtual --
 -0.0707  -0.0500  -0.0360  -0.0136  -0.0079  -0.0006   0.0038   0.0140
  0.0197   0.0427   0.0488   0.0581   0.0691   0.0863   0.0887   0.1004
  0.1057   0.1196   0.1249   0.1346   0.1438   0.1463   0.1608   0.1709
  0.1735   0.1841   0.1869   0.1993   0.2054   0.2128   0.2144   0.2276
  0.2373   0.2430   0.2491   0.2698   0.2772   0.2941   0.2968   0.3218
  0.3429   0.3473   0.3528   0.3569   0.3627   0.3797   0.4032   0.4116
  0.4390   0.4504   0.4565   0.4710   0.4918   0.5003   0.5247   0.5482
  0.5659   0.5735   0.5744   0.5783   0.6032   0.6106   0.6174   0.6274
  0.6307   0.6373   0.6427   0.6507   0.6680   0.6735   0.6810   0.6985
  0.7013   0.7038   0.7132   0.7209   0.7258   0.7373   0.7394   0.7469
  0.7521   0.7548   0.7627   0.7739   0.7838   0.7916   0.7983   0.8036
  0.8198   0.8336   0.8397   0.8511   0.8558   0.8714   0.8848   0.8945
  0.9049   0.9208   0.9337   0.9392   0.9609   0.9864   0.9922   0.9962
  1.0065   1.0084   1.0158   1.0242   1.0340   1.0393   1.0428   1.0528
  1.0758   1.0775   1.0899   1.0933   1.0939   1.1003   1.1111   1.1198
  1.1326   1.1369   1.1419   1.1475   1.1680   1.1924   1.1982   1.2107
  1.2216   1.2550   1.2557   1.2627   1.2766   1.3083   1.3364   1.3426
  1.3514   1.3750   1.3841   1.4207   1.4669   1.5350   1.5670   1.5775
  1.5985   1.6072   1.6499   1.6532   1.7025   1.7591   1.7759   1.8698
  1.9841   2.0436   2.1123   8.2356
 --------------------------------------------------------------
 
          Ground-State Mulliken Net Atomic Charges

     Atom                 Charge (a.u.)
  ----------------------------------------
      1 V                     0.998701
      2 N                    -0.978928
      3 N                    -0.966750
      4 S                     0.471051
      5 S                     0.464329
      6 Cl                   -0.437511
      7 Cl                   -0.449509
      8 C                     0.249920
      9 C                    -0.265557
     10 C                    -0.117736
     11 C                    -0.245434
     12 C                     0.455095
     13 C                     0.424270
     14 C                    -0.249456
     15 C                    -0.118182
     16 C                    -0.263599
     17 C                     0.243936
     18 C                    -0.663879
     19 C                    -0.616397
     20 C                    -0.598346
     21 C                    -0.689219
     22 H                     0.325177
     23 H                     0.269116
     24 H                     0.266604
     25 H                     0.253300
     26 H                     0.253532
     27 H                     0.265726
     28 H                     0.269516
     29 H                     0.325371
     30 H                     0.249594
     31 H                     0.291859
     32 H                     0.263716
     33 H                     0.250707
     34 H                     0.253739
     35 H                     0.276067
     36 H                     0.290075
     37 H                     0.249102
  ----------------------------------------
  Sum of atomic charges =     1.000000

 -----------------------------------------------------------------
                    Cartesian Multipole Moments
 -----------------------------------------------------------------
    Charge (ESU x 10^10)
                 4.8032
    Dipole Moment (Debye)
         X       0.6359      Y      12.7221      Z      -0.3236
       Tot      12.7421
    Quadrupole Moments (Debye-Ang)
        XX     -73.8324     XY      -0.5193     YY    -141.4471
        XZ      -2.9756     YZ       0.1921     ZZ    -169.7340
    Octopole Moments (Debye-Ang^2)
       XXX      -7.4427    XXY     -26.9739    XYY       1.8894
       YYY      93.4008    XXZ      -1.2725    XYZ      58.1539
       YYZ      -7.7419    XZZ       8.0776    YZZ      30.3230
       ZZZ       1.1421
    Hexadecapole Moments (Debye-Ang^3)
      XXXX   -3748.8301   XXXY     -10.1478   XXYY   -1174.9928
      XYYY       2.2702   YYYY   -2257.6477   XXXZ     -86.7635
      XXYZ       6.8996   XYYZ     -45.2702   YYYZ      -9.4693
      XXZZ   -1158.8380   XYZZ      -5.1788   YYZZ    -634.3434
      XZZZ      28.3949   YZZZ       5.2448   ZZZZ   -1429.4214
 -----------------------------------------------------------------
 Calculating analytic gradient of the SCF energy
 Gradient of SCF Energy
            1           2           3           4           5           6
    1  -0.0067185   0.0279802  -0.0322218   0.0308013  -0.0014099   0.0049153
    2   0.0957244   0.0014304  -0.0135595  -0.0235953  -0.0443106  -0.0058350
    3  -0.0097798  -0.0044236  -0.0021819   0.0435655  -0.0115952   0.0130793
            7           8           9          10          11          12
    1  -0.0050526   0.0215018  -0.0038445   0.0007903  -0.0057237   0.0243733
    2  -0.0055335  -0.0149353   0.0031984  -0.0034629   0.0002718   0.0239309
    3  -0.0120887   0.0121213  -0.0026136   0.0005027   0.0029685  -0.0104549
           13          14          15          16          17          18
    1  -0.0243998   0.0079039  -0.0028358  -0.0015719  -0.0179614  -0.0471673
    2   0.0237143  -0.0002075  -0.0009925   0.0025187  -0.0169607   0.0152786
    3   0.0151648  -0.0021706   0.0000526   0.0026465  -0.0158372  -0.0048729
           19          20          21          22          23          24
    1   0.0254669  -0.0352279   0.0417906  -0.0098156  -0.0044860  -0.0049049
    2  -0.0519407  -0.0271141  -0.0085461  -0.0068589  -0.0053534  -0.0015457
    3  -0.0083817  -0.0263232   0.0220115   0.0018702   0.0024094  -0.0001756
           25          26          27          28          29          30
    1  -0.0048027   0.0052480   0.0038937   0.0033542   0.0116560   0.0132274
    2   0.0043975   0.0036161  -0.0018382  -0.0052145  -0.0049946   0.0155695
    3  -0.0016897   0.0017955  -0.0007768  -0.0034012  -0.0030551  -0.0121904
           31          32          33          34          35          36
    1   0.0054126   0.0015180  -0.0059242   0.0194091  -0.0065908  -0.0086703
    2   0.0018735   0.0188684  -0.0006092  -0.0007423   0.0181598   0.0112327
    3   0.0161449   0.0011225   0.0114557  -0.0017889  -0.0084948  -0.0083750
           37
    1  -0.0199132
    2   0.0043656
    3   0.0037603
 Max gradient component =       9.572E-02
 RMS gradient           =       1.805E-02
 Gradient time:  CPU 55.95 s  wall 7.26 s
 Geometry Optimization Parameters
   NAtoms,    NIC,     NZ,  NCons,   NDum,   NFix, NCnnct, MaxDiis
       37     329       0       0       0       0       0       0


** GEOMETRY OPTIMIZATION IN DELOCALIZED INTERNAL COORDINATES **
   Searching for a Minimum

   Optimization Cycle:   1

                       Coordinates (Angstroms)
     ATOM                X               Y               Z
      1  V        -0.0408023095   -0.3972806716    0.0181476542
      2  N        -2.0667229658   -0.3541872351    0.2160276346
      3  N         2.0047728123   -0.4409156748   -0.1815652096
      4  S        -0.2355964960    1.3258919242   -1.5591485584
      5  S         0.4213967777    1.3121361665    1.6173924544
      6  Cl       -0.4115545040   -2.0415235624   -1.6171051519
      7  Cl        0.2103120510   -2.0508097267    1.6747640832
      8  C        -2.7396466472   -1.3816135419    0.8169129116
      9  C        -4.1257548099   -1.4034518196    0.8290504989
     10  C        -4.8300142066   -0.3641357882    0.2406965115
     11  C        -4.1382139053    0.6774001960   -0.3669849275
     12  C        -2.7397636117    0.6460105059   -0.3998279985
     13  C         2.7790580225    0.4986114885    0.4596118614
     14  C         4.1712459915    0.4434644452    0.3413870983
     15  C         4.7596645202   -0.5840031953   -0.3863053552
     16  C         3.9643583226   -1.5361936205   -1.0010079975
     17  C         2.5893560320   -1.4496151151   -0.8959310319
     18  C         2.1938682862    1.5882450242    1.3429984407
     19  C         0.0095671461    2.8478118151    0.6751132236
     20  C         0.3123842747    2.8722239843   -0.8404078148
     21  C        -2.0148758479    1.7017779529   -1.1668624186
     22  H        -2.2210861414   -2.2048136641    1.2520323730
     23  H        -4.6447626449   -2.2354027733    1.2803453110
     24  H        -5.9081547019   -0.3784661303    0.2339888370
     25  H        -4.6832330277    1.4769971103   -0.8467559778
     26  H         4.7946981804    1.1730009366    0.8369605966
     27  H         5.8320524687   -0.6542852923   -0.4604810629
     28  H         4.4045759484   -2.3515944123   -1.5542905331
     29  H         2.0100556612   -2.2047156372   -1.3676834985
     30  H         2.4308589343    2.5660279721    0.8810177776
     31  H         2.6853379127    1.5737868233    2.3314765682
     32  H         0.5000127228    3.7263234699    1.1344355993
     33  H        -1.0376015813    3.0118478507    0.9311680397
     34  H         1.4030611672    2.9538758964   -1.0198989762
     35  H        -0.1628774611    3.7446974065   -1.3326400106
     36  H        -2.5314446637    1.8888638451   -2.1211989561
     37  H        -2.1984727919    2.6390548871   -0.6398712877
   Point Group: c1    Number of degrees of freedom:   105


   Energy is  -3304.683788234


 Attempting to generate delocalized internal coordinates
 Initial Hessian constructed with Jon Baker's OPTIMIZE code

105 Hessian modes will be used to form the next step
  Hessian Eigenvalues:
     0.003365    0.004281    0.007231    0.008726    0.009774    0.010874
     0.012575    0.015338    0.017388    0.021472    0.021926    0.022112
     0.022517    0.022690    0.023105    0.023182    0.023891    0.023948
     0.024100    0.024156    0.024209    0.024640    0.033998    0.035820
     0.044675    0.050336    0.052047    0.056772    0.063226    0.065693
     0.077158    0.084277    0.087405    0.091987    0.096622    0.103346
     0.105988    0.107896    0.109678    0.113561    0.122968    0.126948
     0.127912    0.128537    0.130281    0.135148    0.138615    0.145973
     0.148838    0.154895    0.159109    0.159801    0.159849    0.159898
     0.159947    0.159949    0.159976    0.159980    0.159994    0.169016
     0.172174    0.173854    0.213230    0.218933    0.219987    0.219994
     0.226066    0.226328    0.232104    0.234272    0.243293    0.244984
     0.248175    0.253298    0.265903    0.291371    0.315897    0.327303
     0.327744    0.329100    0.330243    0.332424    0.335517    0.347166
     0.347632    0.359842    0.359882    0.360628    0.360845    0.362058
     0.363292    0.377683    0.382307    0.421285    0.424954    0.432196
     0.435676    0.466932    0.467430    0.477452    0.477511    0.482647
     0.496708    0.506367    0.508558

 Minimum search - taking simple RFO step
 Searching for Lamda that Minimizes Along All modes
 Value Taken    Lamda =  -0.09029993
 Calculated Step too Large.  Step scaled by  0.479316
 Step Taken.  Stepsize is  0.300000

                             Maximum     Tolerance    Cnvgd?
         Gradient           0.048748      0.000300      NO
         Displacement       0.106444      0.001200      NO
         Energy change     *********      0.000001      NO


 New Cartesian Coordinates Obtained by Inverse Iteration

 Displacement from previous Coordinates is:  0.684818
 ----------------------------------------------------------------
             Standard Nuclear Orientation (Angstroms)
    I     Atom           X                Y                Z
 ----------------------------------------------------------------
    1      V      -0.0393476764    -0.3981459894     0.0186289075
    2      N      -2.1094643522    -0.3548787480     0.2073431552
    3      N       2.0514652480    -0.4385621209    -0.1759874691
    4      S      -0.2912151239     1.3658047689    -1.5779833775
    5      S       0.4627067725     1.3592017868     1.6251118872
    6      Cl     -0.4291303134    -2.0292722104    -1.6348216076
    7      Cl      0.2430543457    -2.0279256795     1.7020338126
    8      C      -2.7794817931    -1.3727677840     0.8086804103
    9      C      -4.1609974661    -1.4128950878     0.8267294006
   10      C      -4.8765940374    -0.3888695315     0.2287784632
   11      C      -4.1920081562     0.6461197128    -0.3896136550
   12      C      -2.7995782781     0.6259046211    -0.4168048916
   13      C       2.8426845115     0.4764687589     0.4567689024
   14      C       4.2283432351     0.4116643755     0.3444657365
   15      C       4.8117961748    -0.6144521812    -0.3828662652
   16      C       4.0026953852    -1.5539871163    -0.9947259150
   17      C       2.6308832474    -1.4444408934    -0.8807682030
   18      C       2.2666305563     1.5650499969     1.3412238138
   19      C       0.0173244701     2.9135443716     0.6996342136
   20      C       0.2862388623     2.9192258552    -0.8191066714
   21      C      -2.0898541254     1.6920223767    -1.1956229716
   22      H      -2.2340356603    -2.1746305921     1.2490364763
   23      H      -4.6646479378    -2.2433040117     1.2883574448
   24      H      -5.9518710132    -0.4094694175     0.2222082426
   25      H      -4.7362625115     1.4352029301    -0.8794116731
   26      H       4.8493221742     1.1350225945     0.8444643087
   27      H       5.8815205177    -0.6918402672    -0.4555646986
   28      H       4.4252003082    -2.3731557421    -1.5485322380
   29      H       2.0208619261    -2.1816349161    -1.3437878719
   30      H       2.5059180386     2.5332075623     0.8915374085
   31      H       2.7581841197     1.5368817771     2.3180619918
   32      H       0.5251617441     3.7723689293     1.1539438872
   33      H      -1.0216090810     3.0880950126     0.9618158096
   34      H       1.3616525485     2.9963713643    -1.0194227968
   35      H      -0.1903267348     3.7847368074    -1.2936408191
   36      H      -2.5997110366     1.8582072250    -2.1483728926
   37      H      -2.2594499741     2.6301733026    -0.6762295473
 ----------------------------------------------------------------
 Molecular Point Group                 C1    NOp =  1
 Largest Abelian Subgroup              C1    NOp =  1
 Nuclear Repulsion Energy =        2926.36277419 hartrees
 There are      101 alpha and      101 beta electrons
 Applying Cartesian multipole field
    Component          Value
    ---------          -----
     (2,0,0)        1.00000E-12
     (0,2,0)        2.00000E-11
     (0,0,2)       -3.00000E-11
 Nucleus-field energy     =     0.0000000122 hartrees
 Requested basis set is 6-31G
 There are 103 shells and 257 basis functions
 A cutoff of  1.0D-08 yielded   3105 shell pairs
 There are     23351 function pairs
 Smallest overlap matrix eigenvalue = 9.17E-04
 Guess MOs from SCF MO coefficient file

 -----------------------------------------------------------------------
  General SCF calculation program by
  Eric Jon Sundstrom, Paul Horn, Yuezhi Mao, Dmitri Zuev, Alec White,
  David Stuck, Shaama M.S., Shane Yost, Joonho Lee, David Small,
  Daniel Levine, Susi Lehtola, Hugh Burton, Evgeny Epifanovsky
 -----------------------------------------------------------------------
 Hartree-Fock
 using 8 threads for integral computing
 -------------------------------------------------------
 OpenMP Integral computing Module                
 Release: version 2.0, May 2017, Q-Chem Inc. Pleasanton 
 -------------------------------------------------------
 A restricted SCF calculation will be
 performed using DIIS, GDM
 SCF converges when RMS gradient is below 1.0e-04
 ---------------------------------------
  Cycle       Energy         DIIS error
 ---------------------------------------
    1   -3304.7155022818      5.42e-04  
    2   -3304.7188739642      1.41e-04  Done DIIS. Switching to GDM
 ---------------------------------------
  Cycle       Energy        RMS Gradient
 ---------------------------------------
    1   -3304.7188739642      1.73e-03   Normal BFGS step
    2   -3304.7191931410      1.56e-03   Normal BFGS step
    3   -3304.7192817436      6.59e-04   Normal BFGS step
    4   -3304.7192910792      6.68e-04   Normal BFGS step
    5   -3304.7192985792      5.84e-04   Normal BFGS step
    6   -3304.7193068759      3.77e-04   Normal BFGS step
    7   -3304.7193142309      3.41e-04   Normal BFGS step
    8   -3304.7193197268      2.93e-04   Normal BFGS step
    9   -3304.7193225869      3.13e-04   Normal BFGS step
   10   -3304.7193247218      3.39e-04   Normal BFGS step
   11   -3304.7193317364      3.47e-04   Normal BFGS step
   12   -3304.7193448992      4.76e-04   Normal BFGS step
   13   -3304.7193666676      6.64e-04   Normal BFGS step
   14   -3304.7193899787      5.85e-04   Normal BFGS step
   15   -3304.7194041630      2.43e-04   Normal BFGS step
   16   -3304.7194083418      1.45e-04   Normal BFGS step
   17   -3304.7194090148      1.27e-04   Normal BFGS step
   18   -3304.7194092627      9.69e-05  Convergence criterion met
 ---------------------------------------
 SCF time:   CPU 166.28s  wall 21.00s 
 SCF   energy in the final basis set =    -3304.7194092627
 Total energy in the final basis set =    -3304.7194092627
 
 --------------------------------------------------------------
 
                    Orbital Energies (a.u.)
 --------------------------------------------------------------
 
 Alpha MOs
 -- Occupied --
********-104.8378-104.8333 -92.1309 -92.1302 -24.1702 -20.3374 -20.3144
-20.3056 -15.7541 -15.7517 -11.4602 -11.4601 -11.4531 -11.4489 -11.4434
-11.4417 -11.4233 -11.4231 -11.4003 -11.3998 -11.3856 -11.3854 -11.3725
-11.3721 -10.5788 -10.5740  -9.1525  -9.1524  -8.0465  -8.0445  -8.0444
 -8.0418  -8.0399  -8.0397  -6.8335  -6.8333  -6.8323  -6.8322  -6.8301
 -6.8301  -3.4201  -2.2663  -2.2465  -2.2392  -1.4337  -1.4289  -1.3062
 -1.2612  -1.2393  -1.2376  -1.2238  -1.1871  -1.1424  -1.1133  -1.1028
 -1.0970  -1.0573  -1.0144  -1.0078  -0.9898  -0.9724  -0.9556  -0.8657
 -0.8619  -0.8343  -0.8171  -0.8114  -0.8045  -0.7875  -0.7859  -0.7681
 -0.7593  -0.7498  -0.7423  -0.7412  -0.7346  -0.7310  -0.6957  -0.6917
 -0.6744  -0.6672  -0.6610  -0.6509  -0.6463  -0.6315  -0.6139  -0.6076
 -0.5987  -0.5752  -0.5659  -0.5488  -0.5418  -0.5342  -0.5180  -0.5123
 -0.4944  -0.4910  -0.4818  -0.4783  -0.4761
 -- Virtual --
 -0.0688  -0.0494  -0.0336  -0.0105  -0.0052   0.0002   0.0034   0.0091
  0.0196   0.0367   0.0433   0.0565   0.0657   0.0841   0.0852   0.1003
  0.1025   0.1207   0.1262   0.1364   0.1446   0.1477   0.1636   0.1722
  0.1752   0.1866   0.1885   0.2035   0.2069   0.2139   0.2150   0.2295
  0.2382   0.2441   0.2464   0.2699   0.2706   0.2886   0.2905   0.3170
  0.3415   0.3488   0.3517   0.3545   0.3633   0.3786   0.4024   0.4097
  0.4335   0.4473   0.4496   0.4643   0.4893   0.5018   0.5225   0.5472
  0.5665   0.5686   0.5693   0.5726   0.6020   0.6107   0.6184   0.6226
  0.6270   0.6336   0.6402   0.6545   0.6674   0.6728   0.6804   0.6963
  0.6995   0.7045   0.7101   0.7183   0.7248   0.7370   0.7392   0.7491
  0.7530   0.7559   0.7647   0.7724   0.7832   0.7899   0.7943   0.8032
  0.8191   0.8296   0.8370   0.8402   0.8510   0.8691   0.8826   0.8862
  0.9008   0.9159   0.9323   0.9426   0.9576   0.9888   0.9945   0.9972
  1.0077   1.0111   1.0188   1.0205   1.0360   1.0415   1.0438   1.0566
  1.0667   1.0695   1.0934   1.0948   1.0988   1.1013   1.1119   1.1236
  1.1390   1.1424   1.1447   1.1482   1.1601   1.1897   1.1967   1.2086
  1.2149   1.2394   1.2557   1.2618   1.2637   1.3049   1.3350   1.3410
  1.3521   1.3682   1.3717   1.4031   1.4270   1.5283   1.5528   1.5728
  1.5919   1.5978   1.6301   1.6368   1.6840   1.7540   1.7609   1.8480
  2.0072   2.0439   2.1067   8.2083
 --------------------------------------------------------------
 
          Ground-State Mulliken Net Atomic Charges

     Atom                 Charge (a.u.)
  ----------------------------------------
      1 V                     1.044589
      2 N                    -0.956172
      3 N                    -0.943622
      4 S                     0.435083
      5 S                     0.425065
      6 Cl                   -0.438081
      7 Cl                   -0.451091
      8 C                     0.233487
      9 C                    -0.260105
     10 C                    -0.118809
     11 C                    -0.243962
     12 C                     0.442747
     13 C                     0.418946
     14 C                    -0.246832
     15 C                    -0.119402
     16 C                    -0.257909
     17 C                     0.224124
     18 C                    -0.655266
     19 C                    -0.597730
     20 C                    -0.585230
     21 C                    -0.674729
     22 H                     0.319738
     23 H                     0.269243
     24 H                     0.266848
     25 H                     0.253338
     26 H                     0.253158
     27 H                     0.266472
     28 H                     0.269128
     29 H                     0.319251
     30 H                     0.246818
     31 H                     0.289753
     32 H                     0.263418
     33 H                     0.250368
     34 H                     0.252260
     35 H                     0.271492
     36 H                     0.287454
     37 H                     0.246160
  ----------------------------------------
  Sum of atomic charges =     1.000000

 -----------------------------------------------------------------
                    Cartesian Multipole Moments
 -----------------------------------------------------------------
    Charge (ESU x 10^10)
                 4.8032
    Dipole Moment (Debye)
         X       0.5236      Y      12.5980      Z      -0.3667
       Tot      12.6142
    Quadrupole Moments (Debye-Ang)
        XX     -72.3260     XY      -0.6369     YY    -140.8179
        XZ      -2.4749     YZ       0.3812     ZZ    -170.2684
    Octopole Moments (Debye-Ang^2)
       XXX      -7.3020    XXY     -28.6492    XYY       1.7470
       YYY      92.8672    XXZ      -1.3247    XYZ      58.3186
       YYZ      -6.4322    XZZ       6.7636    YZZ      28.8417
       ZZZ       0.4912
    Hexadecapole Moments (Debye-Ang^3)
      XXXX   -3836.4756   XXXY      -6.3486   XXYY   -1204.9307
      XYYY       6.8736   YYYY   -2266.6322   XXXZ     -96.9384
      XXYZ       5.8933   XYYZ     -51.9043   YYYZ      -5.8735
      XXZZ   -1185.8148   XYZZ      -3.6395   YYZZ    -643.5216
      XZZZ       8.3562   YZZZ       4.0914   ZZZZ   -1453.5613
 -----------------------------------------------------------------
 Calculating analytic gradient of the SCF energy
 Gradient of SCF Energy
            1           2           3           4           5           6
    1  -0.0049534   0.0198888  -0.0246154   0.0239138  -0.0044428   0.0019483
    2   0.0811040  -0.0033145  -0.0111865  -0.0234974  -0.0361726  -0.0080333
    3  -0.0075125  -0.0004216  -0.0020640   0.0259970  -0.0058891   0.0090820
            7           8           9          10          11          12
    1  -0.0022635   0.0112740  -0.0016890   0.0013215  -0.0042595   0.0128334
    2  -0.0076857  -0.0080828   0.0023126  -0.0012516  -0.0007897   0.0160259
    3  -0.0083444   0.0066053  -0.0018644  -0.0004943   0.0032313  -0.0061262
           13          14          15          16          17          18
    1  -0.0111651   0.0046593  -0.0023233  -0.0003514  -0.0103445  -0.0308503
    2   0.0152390  -0.0011760  -0.0001830   0.0023650  -0.0080979   0.0129094
    3   0.0087520  -0.0024855   0.0004193   0.0022575  -0.0084336  -0.0022944
           19          20          21          22          23          24
    1   0.0171163  -0.0249043   0.0305251  -0.0072316  -0.0028361  -0.0028965
    2  -0.0333173  -0.0154359  -0.0069234  -0.0042788  -0.0031344  -0.0011455
    3  -0.0036060  -0.0222350   0.0153844   0.0005918   0.0013214  -0.0003774
           25          26          27          28          29          30
    1  -0.0031361   0.0034252   0.0023898   0.0022885   0.0076575   0.0103140
    2   0.0025752   0.0019642  -0.0013687  -0.0030345  -0.0031479   0.0070690
    3  -0.0006945   0.0008137  -0.0003568  -0.0019211  -0.0016187  -0.0075533
           31          32          33          34          35          36
    1   0.0052787  -0.0013292  -0.0020754   0.0120044  -0.0029386  -0.0065186
    2   0.0012800   0.0129892   0.0024566   0.0006970   0.0117231   0.0092449
    3   0.0091086   0.0009703   0.0077398  -0.0002183  -0.0038173  -0.0050029
           37
    1  -0.0157138
    2   0.0013023
    3   0.0010571
 Max gradient component =       8.110E-02
 RMS gradient           =       1.319E-02
 Gradient time:  CPU 54.74 s  wall 6.95 s
 Geometry Optimization Parameters
   NAtoms,    NIC,     NZ,  NCons,   NDum,   NFix, NCnnct, MaxDiis
       37     329       0       0       0       0       0       0

 Cartesian Hessian Update
 Hessian updated using BFGS update


** GEOMETRY OPTIMIZATION IN DELOCALIZED INTERNAL COORDINATES **
   Searching for a Minimum

   Optimization Cycle:   2

                       Coordinates (Angstroms)
     ATOM                X               Y               Z
      1  V        -0.0393476764   -0.3981459894    0.0186289075
      2  N        -2.1094643522   -0.3548787480    0.2073431552
      3  N         2.0514652480   -0.4385621209   -0.1759874691
      4  S        -0.2912151239    1.3658047689   -1.5779833775
      5  S         0.4627067725    1.3592017868    1.6251118872
      6  Cl       -0.4291303134   -2.0292722104   -1.6348216076
      7  Cl        0.2430543457   -2.0279256795    1.7020338126
      8  C        -2.7794817931   -1.3727677840    0.8086804103
      9  C        -4.1609974661   -1.4128950878    0.8267294006
     10  C        -4.8765940374   -0.3888695315    0.2287784632
     11  C        -4.1920081562    0.6461197128   -0.3896136550
     12  C        -2.7995782781    0.6259046211   -0.4168048916
     13  C         2.8426845115    0.4764687589    0.4567689024
     14  C         4.2283432351    0.4116643755    0.3444657365
     15  C         4.8117961748   -0.6144521812   -0.3828662652
     16  C         4.0026953852   -1.5539871163   -0.9947259150
     17  C         2.6308832474   -1.4444408934   -0.8807682030
     18  C         2.2666305563    1.5650499969    1.3412238138
     19  C         0.0173244701    2.9135443716    0.6996342136
     20  C         0.2862388623    2.9192258552   -0.8191066714
     21  C        -2.0898541254    1.6920223767   -1.1956229716
     22  H        -2.2340356603   -2.1746305921    1.2490364763
     23  H        -4.6646479378   -2.2433040117    1.2883574448
     24  H        -5.9518710132   -0.4094694175    0.2222082426
     25  H        -4.7362625115    1.4352029301   -0.8794116731
     26  H         4.8493221742    1.1350225945    0.8444643087
     27  H         5.8815205177   -0.6918402672   -0.4555646986
     28  H         4.4252003082   -2.3731557421   -1.5485322380
     29  H         2.0208619261   -2.1816349161   -1.3437878719
     30  H         2.5059180386    2.5332075623    0.8915374085
     31  H         2.7581841197    1.5368817771    2.3180619918
     32  H         0.5251617441    3.7723689293    1.1539438872
     33  H        -1.0216090810    3.0880950126    0.9618158096
     34  H         1.3616525485    2.9963713643   -1.0194227968
     35  H        -0.1903267348    3.7847368074   -1.2936408191
     36  H        -2.5997110366    1.8582072250   -2.1483728926
     37  H        -2.2594499741    2.6301733026   -0.6762295473
   Point Group: c1    Number of degrees of freedom:   105


   Energy is  -3304.719409263

 Hessian updated using BFGS update

105 Hessian modes will be used to form the next step
  Hessian Eigenvalues:
     0.003366    0.004320    0.007254    0.008725    0.009789    0.010872
     0.012894    0.015346    0.017389    0.021476    0.021925    0.022111
     0.022530    0.022692    0.023105    0.023182    0.023890    0.023947
     0.024100    0.024155    0.024209    0.024640    0.034022    0.035782
     0.045260    0.050193    0.051971    0.056945    0.062835    0.065785
     0.077230    0.085433    0.086462    0.092013    0.094465    0.103260
     0.104866    0.106946    0.108851    0.112775    0.119681    0.123124
     0.128161    0.128739    0.130266    0.136883    0.140904    0.145993
     0.151716    0.157566    0.159081    0.159654    0.159812    0.159892
     0.159948    0.159966    0.159977    0.159982    0.161624    0.170498
     0.171774    0.177912    0.214200    0.219570    0.219968    0.220023
     0.226235    0.226601    0.233124    0.235428    0.243961    0.245974
     0.250916    0.263506    0.278445    0.291410    0.315810    0.327313
     0.327535    0.329873    0.331908    0.332949    0.335156    0.347449
     0.349347    0.359853    0.359955    0.360662    0.360866    0.362070
     0.363271    0.377986    0.382329    0.418570    0.424721    0.432661
     0.436870    0.467014    0.467169    0.477239    0.478176    0.482501
     0.496215    0.507859    0.508684

 Minimum search - taking simple RFO step
 Searching for Lamda that Minimizes Along All modes
 Value Taken    Lamda =  -0.04900982
 Calculated Step too Large.  Step scaled by  0.553560
 Step Taken.  Stepsize is  0.300000

                             Maximum     Tolerance    Cnvgd?
         Gradient           0.027400      0.000300      NO
         Displacement       0.106840      0.001200      NO
         Energy change     -0.035621      0.000001      NO


 New Cartesian Coordinates Obtained by Inverse Iteration

 Displacement from previous Coordinates is:  0.520235
 ----------------------------------------------------------------
             Standard Nuclear Orientation (Angstroms)
    I     Atom           X                Y                Z
 ----------------------------------------------------------------
    1      V      -0.0374161250    -0.4063184504     0.0144987203
    2      N      -2.1384761520    -0.3504403925     0.1874799803
    3      N       2.0890154889    -0.4434473831    -0.1682548414
    4      S      -0.3437708392     1.4114970713    -1.5942197510
    5      S       0.4909870436     1.4045499393     1.6277905511
    6      Cl     -0.4279130946    -1.9966267117    -1.6719011040
    7      Cl      0.2561050262    -1.9909863261     1.7325729556
    8      C      -2.7916402367    -1.3646726423     0.7952421120
    9      C      -4.1692381532    -1.4268808079     0.8279860292
   10      C      -4.9017540186    -0.4172580585     0.2254411774
   11      C      -4.2313946906     0.6184623327    -0.4073902172
   12      C      -2.8446571392     0.6155819231    -0.4364762999
   13      C       2.8853533712     0.4543902043     0.4576992648
   14      C       4.2655368735     0.3802831535     0.3528568587
   15      C       4.8442144809    -0.6479903627    -0.3755257895
   16      C       4.0250263899    -1.5795063902    -0.9879265519
   17      C       2.6569152509    -1.4504532693    -0.8672075225
   18      C       2.3135120714     1.5480863644     1.3350318837
   19      C       0.0230603973     2.9664128683     0.7149379898
   20      C       0.2690671342     2.9589789558    -0.7972568616
   21      C      -2.1535034992     1.7003061355    -1.2181908212
   22      H      -2.2102319792    -2.1412313698     1.2375238576
   23      H      -4.6523556367    -2.2574468806     1.3033495428
   24      H      -5.9745968967    -0.4466861053     0.2276193232
   25      H      -4.7805268100     1.3979250888    -0.9007549463
   26      H       4.8829878606     1.1002662281     0.8561102126
   27      H       5.9116615141    -0.7298592398    -0.4470794284
   28      H       4.4316190357    -2.4014808927    -1.5431694020
   29      H       2.0177428284    -2.1693281117    -1.3235261459
   30      H       2.5390555279     2.5152489419     0.8962599467
   31      H       2.7890074068     1.5156548152     2.3096129045
   32      H       0.5520231361     3.8028781849     1.1662627279
   33      H      -1.0130232964     3.1395323531     0.9781247473
   34      H       1.3300661113     3.0207405416    -1.0227697440
   35      H      -0.2101576890     3.8154253512    -1.2628700584
   36      H      -2.6544742567     1.8491834976    -2.1692559613
   37      H      -2.2917675212     2.6402512839    -0.6970646313
 ----------------------------------------------------------------
 Molecular Point Group                 C1    NOp =  1
 Largest Abelian Subgroup              C1    NOp =  1
 Nuclear Repulsion Energy =        2907.17722831 hartrees
 There are      101 alpha and      101 beta electrons
 Applying Cartesian multipole field
    Component          Value
    ---------          -----
     (2,0,0)        1.00000E-12
     (0,2,0)        2.00000E-11
     (0,0,2)       -3.00000E-11
 Nucleus-field energy     =     0.0000000120 hartrees
 Requested basis set is 6-31G
 There are 103 shells and 257 basis functions
 A cutoff of  1.0D-08 yielded   3071 shell pairs
 There are     23119 function pairs
 Smallest overlap matrix eigenvalue = 9.04E-04
 Guess MOs from SCF MO coefficient file

 -----------------------------------------------------------------------
  General SCF calculation program by
  Eric Jon Sundstrom, Paul Horn, Yuezhi Mao, Dmitri Zuev, Alec White,
  David Stuck, Shaama M.S., Shane Yost, Joonho Lee, David Small,
  Daniel Levine, Susi Lehtola, Hugh Burton, Evgeny Epifanovsky
 -----------------------------------------------------------------------
 Hartree-Fock
 using 8 threads for integral computing
 -------------------------------------------------------
 OpenMP Integral computing Module                
 Release: version 2.0, May 2017, Q-Chem Inc. Pleasanton 
 -------------------------------------------------------
 A restricted SCF calculation will be
 performed using DIIS, GDM
 SCF converges when RMS gradient is below 1.0e-04
 ---------------------------------------
  Cycle       Energy         DIIS error
 ---------------------------------------
    1   -3304.7384001571      4.91e-04  
    2   -3304.7412147838      1.23e-04  Done DIIS. Switching to GDM
 ---------------------------------------
  Cycle       Energy        RMS Gradient
 ---------------------------------------
    1   -3304.7412147838      2.14e-03   Normal BFGS step
    2   -3304.7414886978      1.47e-03   Normal BFGS step
    3   -3304.7415522700      6.33e-04   Normal BFGS step
    4   -3304.7415601569      3.37e-04   Normal BFGS step
    5   -3304.7415647427      3.10e-04   Normal BFGS step
    6   -3304.7415698248      2.40e-04   Normal BFGS step
    7   -3304.7415754222      2.15e-04   Normal BFGS step
    8   -3304.7415809126      1.97e-04   Normal BFGS step
    9   -3304.7415849420      1.94e-04   Normal BFGS step
   10   -3304.7415872085      2.09e-04   Normal BFGS step
   11   -3304.7415910671      2.25e-04   Normal BFGS step
   12   -3304.7415978960      2.72e-04   Normal BFGS step
   13   -3304.7416070671      3.35e-04   Normal BFGS step
   14   -3304.7416148960      3.36e-04   Normal BFGS step
   15   -3304.7416185597      1.30e-04   Normal BFGS step
   16   -3304.7416189971      6.67e-05  Convergence criterion met
 ---------------------------------------
 SCF time:   CPU 145.98s  wall 18.00s 
 SCF   energy in the final basis set =    -3304.7416189971
 Total energy in the final basis set =    -3304.7416189971
 
 --------------------------------------------------------------
 
                    Orbital Energies (a.u.)
 --------------------------------------------------------------
 
 Alpha MOs
 -- Occupied --
********-104.8424-104.8382 -92.1278 -92.1277 -24.1784 -20.3463 -20.3202
-20.3158 -15.7522 -15.7513 -11.4583 -11.4571 -11.4493 -11.4468 -11.4406
-11.4404 -11.4220 -11.4210 -11.4000 -11.3990 -11.3842 -11.3837 -11.3720
-11.3719 -10.5834 -10.5789  -9.1488  -9.1484  -8.0511  -8.0491  -8.0490
 -8.0467  -8.0448  -8.0445  -6.8298  -6.8294  -6.8286  -6.8282  -6.8265
 -6.8261  -3.4256  -2.2717  -2.2501  -2.2448  -1.4361  -1.4331  -1.2997
 -1.2569  -1.2397  -1.2381  -1.2242  -1.1846  -1.1435  -1.1170  -1.1076
 -1.0952  -1.0540  -1.0144  -1.0086  -0.9910  -0.9730  -0.9541  -0.8655
 -0.8620  -0.8332  -0.8168  -0.8118  -0.8023  -0.7873  -0.7855  -0.7687
 -0.7613  -0.7491  -0.7421  -0.7410  -0.7337  -0.7316  -0.6948  -0.6922
 -0.6716  -0.6668  -0.6563  -0.6507  -0.6467  -0.6242  -0.6129  -0.6104
 -0.5986  -0.5727  -0.5627  -0.5494  -0.5437  -0.5357  -0.5204  -0.5161
 -0.4979  -0.4946  -0.4836  -0.4810  -0.4796
 -- Virtual --
 -0.0669  -0.0478  -0.0318  -0.0085  -0.0034   0.0006   0.0040   0.0064
  0.0196   0.0319   0.0419   0.0547   0.0647   0.0799   0.0843   0.0954
  0.1056   0.1214   0.1279   0.1370   0.1468   0.1490   0.1655   0.1727
  0.1780   0.1890   0.1904   0.2065   0.2080   0.2142   0.2159   0.2280
  0.2392   0.2456   0.2473   0.2664   0.2713   0.2835   0.2901   0.3117
  0.3406   0.3480   0.3506   0.3550   0.3643   0.3766   0.4035   0.4077
  0.4330   0.4447   0.4481   0.4613   0.4880   0.5039   0.5204   0.5472
  0.5631   0.5638   0.5683   0.5700   0.6007   0.6105   0.6182   0.6212
  0.6260   0.6303   0.6403   0.6582   0.6671   0.6723   0.6798   0.6937
  0.6968   0.7050   0.7080   0.7167   0.7234   0.7362   0.7393   0.7497
  0.7531   0.7559   0.7664   0.7700   0.7806   0.7865   0.7914   0.8034
  0.8185   0.8255   0.8319   0.8389   0.8496   0.8678   0.8794   0.8806
  0.8973   0.9139   0.9306   0.9471   0.9540   0.9887   0.9954   0.9982
  1.0079   1.0126   1.0160   1.0178   1.0397   1.0441   1.0457   1.0597
  1.0621   1.0649   1.0947   1.0989   1.1031   1.1052   1.1121   1.1280
  1.1447   1.1464   1.1477   1.1508   1.1551   1.1821   1.1950   1.2053
  1.2127   1.2287   1.2483   1.2586   1.2635   1.3025   1.3331   1.3381
  1.3501   1.3630   1.3669   1.3912   1.4016   1.5214   1.5405   1.5685
  1.5852   1.5906   1.6092   1.6286   1.6813   1.7494   1.7560   1.8318
  2.0173   2.0460   2.1042   8.1903
 --------------------------------------------------------------
 
          Ground-State Mulliken Net Atomic Charges

     Atom                 Charge (a.u.)
  ----------------------------------------
      1 V                     1.085548
      2 N                    -0.942620
      3 N                    -0.929086
      4 S                     0.402963
      5 S                     0.396747
      6 Cl                   -0.436984
      7 Cl                   -0.448705
      8 C                     0.220327
      9 C                    -0.254835
     10 C                    -0.120021
     11 C                    -0.242997
     12 C                     0.433541
     13 C                     0.416587
     14 C                    -0.244438
     15 C                    -0.120664
     16 C                    -0.252918
     17 C                     0.209215
     18 C                    -0.648775
     19 C                    -0.587951
     20 C                    -0.576956
     21 C                    -0.659802
     22 H                     0.316478
     23 H                     0.269524
     24 H                     0.266540
     25 H                     0.253584
     26 H                     0.253045
     27 H                     0.266214
     28 H                     0.269031
     29 H                     0.315143
     30 H                     0.244015
     31 H                     0.287773
     32 H                     0.262956
     33 H                     0.249871
     34 H                     0.251613
     35 H                     0.267756
     36 H                     0.284905
     37 H                     0.243375
  ----------------------------------------
  Sum of atomic charges =     1.000000

 -----------------------------------------------------------------
                    Cartesian Multipole Moments
 -----------------------------------------------------------------
    Charge (ESU x 10^10)
                 4.8032
    Dipole Moment (Debye)
         X       0.4244      Y      12.2402      Z      -0.3459
       Tot      12.2525
    Quadrupole Moments (Debye-Ang)
        XX     -71.5989     XY      -0.8506     YY    -139.9422
        XZ      -2.0987     YZ       0.4201     ZZ    -170.9148
    Octopole Moments (Debye-Ang^2)
       XXX      -7.2450    XXY     -30.8652    XYY       1.8603
       YYY      88.2736    XXZ      -1.0713    XYZ      58.2063
       YYZ      -5.0830    XZZ       5.7535    YZZ      26.7676
       ZZZ       1.3685
    Hexadecapole Moments (Debye-Ang^3)
      XXXX   -3899.4563   XXXY      -2.0863   XXYY   -1224.3309
      XYYY      14.4220   YYYY   -2272.7624   XXXZ    -107.0154
      XXYZ       4.7233   XYYZ     -56.9994   YYYZ      -3.6955
      XXZZ   -1203.8628   XYZZ      -0.9510   YYZZ    -651.6685
      XZZZ      -8.3135   YZZZ       2.3910   ZZZZ   -1480.5353
 -----------------------------------------------------------------
 Calculating analytic gradient of the SCF energy
 Gradient of SCF Energy
            1           2           3           4           5           6
    1  -0.0041852   0.0119540  -0.0137363   0.0159629  -0.0032565   0.0008092
    2   0.0632133  -0.0066618  -0.0082682  -0.0181753  -0.0245033  -0.0077494
    3  -0.0049816   0.0017668  -0.0006638   0.0137960  -0.0019543   0.0063712
            7           8           9          10          11          12
    1  -0.0012899   0.0050824   0.0002075   0.0003454  -0.0016984   0.0052824
    2  -0.0076044  -0.0022980   0.0004469  -0.0001610   0.0000694   0.0084890
    3  -0.0057593   0.0022470  -0.0006296  -0.0008181   0.0021959  -0.0030343
           13          14          15          16          17          18
    1  -0.0041923   0.0007262  -0.0007487  -0.0002657  -0.0053666  -0.0179963
    2   0.0064635  -0.0001567  -0.0002793   0.0007313  -0.0018731   0.0092225
    3   0.0031717  -0.0013360   0.0001445   0.0008855  -0.0032378  -0.0011649
           19          20          21          22          23          24
    1   0.0115468  -0.0149633   0.0196321  -0.0029222  -0.0011600  -0.0012308
    2  -0.0196186  -0.0069320  -0.0045734  -0.0026433  -0.0014466  -0.0007743
    3  -0.0022092  -0.0146079   0.0080437   0.0002124   0.0004881  -0.0003798
           25          26          27          28          29          30
    1  -0.0013707   0.0014989   0.0009876   0.0008869   0.0034262   0.0051794
    2   0.0013173   0.0009990  -0.0008494  -0.0013844  -0.0020417   0.0029376
    3  -0.0000267   0.0002608  -0.0000525  -0.0008113  -0.0008913  -0.0038782
           31          32          33          34          35          36
    1   0.0023068  -0.0018448  -0.0009470   0.0052910  -0.0010269  -0.0035391
    2   0.0009993   0.0067401   0.0027188   0.0006400   0.0052498   0.0063774
    3   0.0038292   0.0003178   0.0043808   0.0005454  -0.0008778  -0.0017782
           37
    1  -0.0093850
    2   0.0013788
    3   0.0004360
 Max gradient component =       6.321E-02
 RMS gradient           =       8.820E-03
 Gradient time:  CPU 52.53 s  wall 6.77 s
 Geometry Optimization Parameters
   NAtoms,    NIC,     NZ,  NCons,   NDum,   NFix, NCnnct, MaxDiis
       37     329       0       0       0       0       0       0

 Cartesian Hessian Update
 Hessian updated using BFGS update


** GEOMETRY OPTIMIZATION IN DELOCALIZED INTERNAL COORDINATES **
   Searching for a Minimum

   Optimization Cycle:   3

                       Coordinates (Angstroms)
     ATOM                X               Y               Z
      1  V        -0.0374161250   -0.4063184504    0.0144987203
      2  N        -2.1384761520   -0.3504403925    0.1874799803
      3  N         2.0890154889   -0.4434473831   -0.1682548414
      4  S        -0.3437708392    1.4114970713   -1.5942197510
      5  S         0.4909870436    1.4045499393    1.6277905511
      6  Cl       -0.4279130946   -1.9966267117   -1.6719011040
      7  Cl        0.2561050262   -1.9909863261    1.7325729556
      8  C        -2.7916402367   -1.3646726423    0.7952421120
      9  C        -4.1692381532   -1.4268808079    0.8279860292
     10  C        -4.9017540186   -0.4172580585    0.2254411774
     11  C        -4.2313946906    0.6184623327   -0.4073902172
     12  C        -2.8446571392    0.6155819231   -0.4364762999
     13  C         2.8853533712    0.4543902043    0.4576992648
     14  C         4.2655368735    0.3802831535    0.3528568587
     15  C         4.8442144809   -0.6479903627   -0.3755257895
     16  C         4.0250263899   -1.5795063902   -0.9879265519
     17  C         2.6569152509   -1.4504532693   -0.8672075225
     18  C         2.3135120714    1.5480863644    1.3350318837
     19  C         0.0230603973    2.9664128683    0.7149379898
     20  C         0.2690671342    2.9589789558   -0.7972568616
     21  C        -2.1535034992    1.7003061355   -1.2181908212
     22  H        -2.2102319792   -2.1412313698    1.2375238576
     23  H        -4.6523556367   -2.2574468806    1.3033495428
     24  H        -5.9745968967   -0.4466861053    0.2276193232
     25  H        -4.7805268100    1.3979250888   -0.9007549463
     26  H         4.8829878606    1.1002662281    0.8561102126
     27  H         5.9116615141   -0.7298592398   -0.4470794284
     28  H         4.4316190357   -2.4014808927   -1.5431694020
     29  H         2.0177428284   -2.1693281117   -1.3235261459
     30  H         2.5390555279    2.5152489419    0.8962599467
     31  H         2.7890074068    1.5156548152    2.3096129045
     32  H         0.5520231361    3.8028781849    1.1662627279
     33  H        -1.0130232964    3.1395323531    0.9781247473
     34  H         1.3300661113    3.0207405416   -1.0227697440
     35  H        -0.2101576890    3.8154253512   -1.2628700584
     36  H        -2.6544742567    1.8491834976   -2.1692559613
     37  H        -2.2917675212    2.6402512839   -0.6970646313
   Point Group: c1    Number of degrees of freedom:   105


   Energy is  -3304.741618997

 Hessian updated using BFGS update

105 Hessian modes will be used to form the next step
  Hessian Eigenvalues:
     0.003366    0.004325    0.007269    0.008730    0.009789    0.010879
     0.012879    0.015344    0.017388    0.021481    0.021930    0.022112
     0.022534    0.022698    0.023104    0.023182    0.023892    0.023948
     0.024100    0.024156    0.024209    0.024640    0.034037    0.035953
     0.045558    0.050421    0.051949    0.056795    0.062665    0.065793
     0.077066    0.080943    0.086515    0.091853    0.094060    0.098240
     0.103476    0.106265    0.108594    0.112370    0.116832    0.123126
     0.128160    0.128731    0.130244    0.137083    0.140457    0.145958
     0.150295    0.157132    0.159141    0.159804    0.159892    0.159943
     0.159954    0.159975    0.159982    0.160123    0.163173    0.171111
     0.172537    0.179479    0.214166    0.219281    0.219999    0.220100
     0.226262    0.226598    0.232895    0.236792    0.243872    0.245968
     0.250886    0.263962    0.273351    0.291326    0.316411    0.327518
     0.328411    0.330028    0.331873    0.335151    0.340577    0.347438
     0.349304    0.359862    0.360118    0.360737    0.361534    0.362513
     0.363552    0.377901    0.382392    0.422653    0.424763    0.432712
     0.437363    0.466935    0.467921    0.477319    0.480243    0.483110
     0.496703    0.507827    0.514874

 Minimum search - taking simple RFO step
 Searching for Lamda that Minimizes Along All modes
 Value Taken    Lamda =  -0.02760718
 Calculated Step too Large.  Step scaled by  0.607849
 Step Taken.  Stepsize is  0.300000

                             Maximum     Tolerance    Cnvgd?
         Gradient           0.020596      0.000300      NO
         Displacement       0.132790      0.001200      NO
         Energy change     -0.022210      0.000001      NO


 New Cartesian Coordinates Obtained by Inverse Iteration

 Displacement from previous Coordinates is:  0.544501
 ----------------------------------------------------------------
             Standard Nuclear Orientation (Angstroms)
    I     Atom           X                Y                Z
 ----------------------------------------------------------------
    1      V      -0.0335159106    -0.4215180651     0.0088549488
    2      N      -2.1686380596    -0.3449480069     0.1707818882
    3      N       2.1265712608    -0.4510106166    -0.1668122127
    4      S      -0.3984269675     1.4556404989    -1.6031557598
    5      S       0.5218977708     1.4444155283     1.6254295098
    6      Cl     -0.4258398793    -1.9539214909    -1.7180579317
    7      Cl      0.2735083474    -1.9470949845     1.7649929556
    8      C      -2.8113267113    -1.3566732583     0.7886068071
    9      C      -4.1875158739    -1.4341876533     0.8342477568
   10      C      -4.9331852027    -0.4407564001     0.2234819245
   11      C      -4.2741888184     0.5916427115    -0.4266760706
   12      C      -2.8901314332     0.6066915536    -0.4548589688
   13      C       2.9259876528     0.4340008486     0.4606420457
   14      C       4.3050999732     0.3504425926     0.3664582638
   15      C       4.8808791195    -0.6763943104    -0.3652114028
   16      C       4.0566311643    -1.5996412475    -0.9842456548
   17      C       2.6900162811    -1.4596166502    -0.8636578002
   18      C       2.3621367331     1.5302810044     1.3338578219
   19      C       0.0328890082     3.0135732539     0.7280489007
   20      C       0.2496786217     2.9972846000    -0.7801946566
   21      C      -2.2208323242     1.7060038369    -1.2391128773
   22      H      -2.2107935485    -2.1147891015     1.2368267059
   23      H      -4.6564233764    -2.2618641479     1.3251512506
   24      H      -6.0047464344    -0.4769820929     0.2334940524
   25      H      -4.8300242167     1.3597985709    -0.9271461220
   26      H       4.9213171531     1.0644762264     0.8766378492
   27      H       5.9473721080    -0.7614036766    -0.4335533739
   28      H       4.4562893174    -2.4211753538    -1.5422117502
   29      H       2.0369422947    -2.1659627296    -1.3206152750
   30      H       2.5899947141     2.4969496990     0.9048039282
   31      H       2.8238499054     1.4874994722     2.3101597885
   32      H       0.5820797908     3.8341496285     1.1740848730
   33      H      -0.9992989478     3.1799091250     1.0016650640
   34      H       1.2996345581     3.0431756100    -1.0366186419
   35      H      -0.2338179807     3.8498288110    -1.2397860167
   36      H      -2.7131375909     1.8319275733    -2.1928116016
   37      H      -2.3448735835     2.6452904811    -0.7179395102
 ----------------------------------------------------------------
 Molecular Point Group                 C1    NOp =  1
 Largest Abelian Subgroup              C1    NOp =  1
 Nuclear Repulsion Energy =        2887.44035824 hartrees
 There are      101 alpha and      101 beta electrons
 Applying Cartesian multipole field
    Component          Value
    ---------          -----
     (2,0,0)        1.00000E-12
     (0,2,0)        2.00000E-11
     (0,0,2)       -3.00000E-11
 Nucleus-field energy     =     0.0000000117 hartrees
 Requested basis set is 6-31G
 There are 103 shells and 257 basis functions
 A cutoff of  1.0D-08 yielded   3044 shell pairs
 There are     22942 function pairs
 Smallest overlap matrix eigenvalue = 9.03E-04
 Guess MOs from SCF MO coefficient file

 -----------------------------------------------------------------------
  General SCF calculation program by
  Eric Jon Sundstrom, Paul Horn, Yuezhi Mao, Dmitri Zuev, Alec White,
  David Stuck, Shaama M.S., Shane Yost, Joonho Lee, David Small,
  Daniel Levine, Susi Lehtola, Hugh Burton, Evgeny Epifanovsky
 -----------------------------------------------------------------------
 Hartree-Fock
 using 8 threads for integral computing
 -------------------------------------------------------
 OpenMP Integral computing Module                
 Release: version 2.0, May 2017, Q-Chem Inc. Pleasanton 
 -------------------------------------------------------
 A restricted SCF calculation will be
 performed using DIIS, GDM
 SCF converges when RMS gradient is below 1.0e-04
 ---------------------------------------
  Cycle       Energy         DIIS error
 ---------------------------------------
    1   -3304.7520886048      4.57e-04  
    2   -3304.7546076919      1.17e-04  Done DIIS. Switching to GDM
 ---------------------------------------
  Cycle       Energy        RMS Gradient
 ---------------------------------------
    1   -3304.7546076919      2.93e-03   Normal BFGS step
    2   -3304.7548844740      1.76e-03   Normal BFGS step
    3   -3304.7549509982      5.07e-04   Normal BFGS step
    4   -3304.7549607554      3.76e-04   Normal BFGS step
    5   -3304.7549670201      3.45e-04   Normal BFGS step
    6   -3304.7549724425      3.03e-04   Normal BFGS step
    7   -3304.7549757703      2.57e-04   Normal BFGS step
    8   -3304.7549776715      2.08e-04   Normal BFGS step
    9   -3304.7549771078      1.90e-04  Line search: overstep
   10   -3304.7549792425      2.01e-04   Normal BFGS step
   11   -3304.7549802532      2.01e-04   Normal BFGS step
   12   -3304.7549810710      2.15e-04   Normal BFGS step
   13   -3304.7549856788      2.26e-04   Normal BFGS step
   14   -3304.7549907784      2.52e-04   Normal BFGS step
   15   -3304.7549950674      2.17e-04   Normal BFGS step
   16   -3304.7549977950      1.04e-04   Normal BFGS step
   17   -3304.7549976631      7.24e-05  Convergence criterion met
 ---------------------------------------
 SCF time:   CPU 145.99s  wall 19.00s 
 SCF   energy in the final basis set =    -3304.7549976631
 Total energy in the final basis set =    -3304.7549976631
 
 --------------------------------------------------------------
 
                    Orbital Energies (a.u.)
 --------------------------------------------------------------
 
 Alpha MOs
 -- Occupied --
********-104.8467-104.8435 -92.1243 -92.1240 -24.1852 -20.3535 -20.3257
-20.3240 -15.7513 -15.7513 -11.4565 -11.4552 -11.4460 -11.4443 -11.4391
-11.4383 -11.4216 -11.4202 -11.3993 -11.3981 -11.3831 -11.3824 -11.3720
-11.3714 -10.5878 -10.5844  -9.1445  -9.1439  -8.0555  -8.0535  -8.0534
 -8.0521  -8.0502  -8.0500  -6.8256  -6.8250  -6.8243  -6.8237  -6.8222
 -6.8217  -3.4303  -2.2762  -2.2539  -2.2492  -1.4363  -1.4341  -1.2930
 -1.2527  -1.2396  -1.2381  -1.2239  -1.1812  -1.1430  -1.1208  -1.1131
 -1.0929  -1.0504  -1.0139  -1.0085  -0.9906  -0.9719  -0.9513  -0.8645
 -0.8611  -0.8304  -0.8161  -0.8114  -0.7991  -0.7867  -0.7852  -0.7684
 -0.7632  -0.7478  -0.7414  -0.7399  -0.7321  -0.7312  -0.6931  -0.6919
 -0.6687  -0.6654  -0.6513  -0.6494  -0.6458  -0.6223  -0.6101  -0.6086
 -0.5977  -0.5696  -0.5598  -0.5496  -0.5448  -0.5370  -0.5234  -0.5191
 -0.5012  -0.4986  -0.4887  -0.4815  -0.4802
 -- Virtual --
 -0.0650  -0.0461  -0.0306  -0.0074  -0.0030  -0.0013   0.0023   0.0086
  0.0196   0.0292   0.0414   0.0525   0.0648   0.0756   0.0837   0.0896
  0.1089   0.1218   0.1295   0.1370   0.1495   0.1501   0.1669   0.1724
  0.1802   0.1905   0.1919   0.2069   0.2086   0.2140   0.2174   0.2236
  0.2389   0.2455   0.2470   0.2642   0.2725   0.2787   0.2893   0.3048
  0.3397   0.3449   0.3518   0.3551   0.3644   0.3745   0.4049   0.4066
  0.4341   0.4438   0.4485   0.4593   0.4853   0.5057   0.5185   0.5464
  0.5567   0.5607   0.5675   0.5690   0.5997   0.6096   0.6169   0.6211
  0.6250   0.6291   0.6407   0.6599   0.6670   0.6723   0.6796   0.6919
  0.6939   0.7057   0.7066   0.7158   0.7221   0.7354   0.7393   0.7505
  0.7534   0.7559   0.7665   0.7682   0.7757   0.7828   0.7900   0.8031
  0.8149   0.8227   0.8282   0.8395   0.8472   0.8670   0.8744   0.8780
  0.8942   0.9108   0.9297   0.9453   0.9528   0.9849   0.9943   0.9986
  1.0050   1.0097   1.0157   1.0166   1.0381   1.0443   1.0479   1.0552
  1.0596   1.0629   1.0945   1.1022   1.1051   1.1078   1.1107   1.1308
  1.1462   1.1478   1.1507   1.1530   1.1569   1.1702   1.1925   1.2043
  1.2102   1.2190   1.2374   1.2590   1.2635   1.2997   1.3276   1.3327
  1.3461   1.3512   1.3627   1.3821   1.3880   1.5160   1.5267   1.5589
  1.5755   1.5815   1.5976   1.6222   1.6785   1.7416   1.7523   1.8120
  2.0228   2.0467   2.1011   8.1765
 --------------------------------------------------------------
 
          Ground-State Mulliken Net Atomic Charges

     Atom                 Charge (a.u.)
  ----------------------------------------
      1 V                     1.118797
      2 N                    -0.928718
      3 N                    -0.916811
      4 S                     0.374341
      5 S                     0.372049
      6 Cl                   -0.435173
      7 Cl                   -0.443904
      8 C                     0.209566
      9 C                    -0.251276
     10 C                    -0.120692
     11 C                    -0.242189
     12 C                     0.425360
     13 C                     0.414200
     14 C                    -0.242536
     15 C                    -0.121270
     16 C                    -0.250254
     17 C                     0.199441
     18 C                    -0.642658
     19 C                    -0.579406
     20 C                    -0.569736
     21 C                    -0.647842
     22 H                     0.311466
     23 H                     0.269372
     24 H                     0.266474
     25 H                     0.253572
     26 H                     0.253039
     27 H                     0.265977
     28 H                     0.268553
     29 H                     0.310526
     30 H                     0.242177
     31 H                     0.286260
     32 H                     0.262014
     33 H                     0.249154
     34 H                     0.250739
     35 H                     0.264437
     36 H                     0.282919
     37 H                     0.242033
  ----------------------------------------
  Sum of atomic charges =     1.000000

 -----------------------------------------------------------------
                    Cartesian Multipole Moments
 -----------------------------------------------------------------
    Charge (ESU x 10^10)
                 4.8032
    Dipole Moment (Debye)
         X       0.3583      Y      11.7903      Z      -0.2935
       Tot      11.7994
    Quadrupole Moments (Debye-Ang)
        XX     -70.5464     XY      -1.0338     YY    -139.0276
        XZ      -1.7899     YZ       0.3834     ZZ    -171.5390
    Octopole Moments (Debye-Ang^2)
       XXX      -7.1675    XXY     -33.1155    XYY       1.9643
       YYY      82.4523    XXZ      -0.5321    XYZ      58.4639
       YYZ      -3.8229    XZZ       4.8536    YZZ      24.3322
       ZZZ       2.7465
    Hexadecapole Moments (Debye-Ang^3)
      XXXX   -3969.4273   XXXY       3.0178   XXYY   -1245.3296
      XYYY      23.0660   YYYY   -2272.1451   XXXZ    -116.6066
      XXYZ       3.5159   XYYZ     -62.6672   YYYZ      -2.5343
      XXZZ   -1224.4707   XYZZ       2.1135   YYZZ    -658.5261
      XZZZ     -24.7179   YZZZ       0.2654   ZZZZ   -1510.7057
 -----------------------------------------------------------------
 Calculating analytic gradient of the SCF energy
 Gradient of SCF Energy
            1           2           3           4           5           6
    1  -0.0029983   0.0076884  -0.0071430   0.0095811  -0.0030381  -0.0002388
    2   0.0461800  -0.0060629  -0.0052679  -0.0130420  -0.0148208  -0.0065867
    3  -0.0031140   0.0018218   0.0006079   0.0055102   0.0003082   0.0040562
            7           8           9          10          11          12
    1   0.0000231   0.0020924  -0.0004935   0.0001107  -0.0000438   0.0010941
    2  -0.0066670  -0.0007408   0.0003108  -0.0006144   0.0005000   0.0047512
    3  -0.0035415   0.0002739  -0.0002985  -0.0001431   0.0009436  -0.0013276
           13          14          15          16          17          18
    1  -0.0012917  -0.0002533  -0.0001497   0.0004475  -0.0028726  -0.0081675
    2   0.0028442   0.0004300  -0.0004980   0.0003428  -0.0005020   0.0046815
    3   0.0007869  -0.0003171  -0.0002108   0.0003346  -0.0012092  -0.0010261
           19          20          21          22          23          24
    1   0.0062245  -0.0073782   0.0099446  -0.0014061  -0.0005607  -0.0004728
    2  -0.0102180  -0.0027385  -0.0026657  -0.0011475  -0.0005397  -0.0004843
    3  -0.0015757  -0.0068584   0.0035153  -0.0002002   0.0000418  -0.0002964
           25          26          27          28          29          30
    1  -0.0006082   0.0006697   0.0003567   0.0003147   0.0017941   0.0021648
    2   0.0006056   0.0004086  -0.0004200  -0.0005323  -0.0010319   0.0006979
    3   0.0002586  -0.0000310   0.0001183  -0.0002517  -0.0001861  -0.0019163
           31          32          33          34          35          36
    1   0.0013066  -0.0014352  -0.0000011   0.0019598  -0.0005583  -0.0020083
    2   0.0006677   0.0030049   0.0022997   0.0006826   0.0020725   0.0038261
    3   0.0012757   0.0002990   0.0020771   0.0004635  -0.0000967  -0.0001377
           37
    1  -0.0046537
    2   0.0002740
    3   0.0000453
 Max gradient component =       4.618E-02
 RMS gradient           =       5.678E-03
 Gradient time:  CPU 51.64 s  wall 6.63 s
 Geometry Optimization Parameters
   NAtoms,    NIC,     NZ,  NCons,   NDum,   NFix, NCnnct, MaxDiis
       37     329       0       0       0       0       0       0

 Cartesian Hessian Update
 Hessian updated using BFGS update


** GEOMETRY OPTIMIZATION IN DELOCALIZED INTERNAL COORDINATES **
   Searching for a Minimum

   Optimization Cycle:   4

                       Coordinates (Angstroms)
     ATOM                X               Y               Z
      1  V        -0.0335159106   -0.4215180651    0.0088549488
      2  N        -2.1686380596   -0.3449480069    0.1707818882
      3  N         2.1265712608   -0.4510106166   -0.1668122127
      4  S        -0.3984269675    1.4556404989   -1.6031557598
      5  S         0.5218977708    1.4444155283    1.6254295098
      6  Cl       -0.4258398793   -1.9539214909   -1.7180579317
      7  Cl        0.2735083474   -1.9470949845    1.7649929556
      8  C        -2.8113267113   -1.3566732583    0.7886068071
      9  C        -4.1875158739   -1.4341876533    0.8342477568
     10  C        -4.9331852027   -0.4407564001    0.2234819245
     11  C        -4.2741888184    0.5916427115   -0.4266760706
     12  C        -2.8901314332    0.6066915536   -0.4548589688
     13  C         2.9259876528    0.4340008486    0.4606420457
     14  C         4.3050999732    0.3504425926    0.3664582638
     15  C         4.8808791195   -0.6763943104   -0.3652114028
     16  C         4.0566311643   -1.5996412475   -0.9842456548
     17  C         2.6900162811   -1.4596166502   -0.8636578002
     18  C         2.3621367331    1.5302810044    1.3338578219
     19  C         0.0328890082    3.0135732539    0.7280489007
     20  C         0.2496786217    2.9972846000   -0.7801946566
     21  C        -2.2208323242    1.7060038369   -1.2391128773
     22  H        -2.2107935485   -2.1147891015    1.2368267059
     23  H        -4.6564233764   -2.2618641479    1.3251512506
     24  H        -6.0047464344   -0.4769820929    0.2334940524
     25  H        -4.8300242167    1.3597985709   -0.9271461220
     26  H         4.9213171531    1.0644762264    0.8766378492
     27  H         5.9473721080   -0.7614036766   -0.4335533739
     28  H         4.4562893174   -2.4211753538   -1.5422117502
     29  H         2.0369422947   -2.1659627296   -1.3206152750
     30  H         2.5899947141    2.4969496990    0.9048039282
     31  H         2.8238499054    1.4874994722    2.3101597885
     32  H         0.5820797908    3.8341496285    1.1740848730
     33  H        -0.9992989478    3.1799091250    1.0016650640
     34  H         1.2996345581    3.0431756100   -1.0366186419
     35  H        -0.2338179807    3.8498288110   -1.2397860167
     36  H        -2.7131375909    1.8319275733   -2.1928116016
     37  H        -2.3448735835    2.6452904811   -0.7179395102
   Point Group: c1    Number of degrees of freedom:   105


   Energy is  -3304.754997663

 Hessian updated using BFGS update

105 Hessian modes will be used to form the next step
  Hessian Eigenvalues:
     0.003366    0.004325    0.007260    0.008729    0.009794    0.010880
     0.012884    0.015346    0.017396    0.021483    0.021929    0.022108
     0.022560    0.022709    0.023103    0.023182    0.023893    0.023949
     0.024100    0.024156    0.024208    0.024640    0.034035    0.035939
     0.045745    0.050374    0.051930    0.056201    0.061854    0.065776
     0.069162    0.077291    0.086732    0.089551    0.092456    0.097860
     0.103405    0.106265    0.108615    0.112221    0.116891    0.123162
     0.128199    0.128731    0.130277    0.137170    0.140984    0.145952
     0.150210    0.158027    0.159152    0.159804    0.159892    0.159945
     0.159954    0.159976    0.159995    0.160128    0.163507    0.171131
     0.173451    0.182572    0.214061    0.219384    0.220003    0.220100
     0.226248    0.226593    0.233164    0.236864    0.243793    0.245884
     0.251161    0.264726    0.278639    0.291567    0.316398    0.327536
     0.328429    0.330030    0.331901    0.335146    0.343111    0.347456
     0.351563    0.359862    0.360168    0.360743    0.361765    0.362943
     0.364645    0.378013    0.382398    0.423618    0.425004    0.432715
[...]
    6      Cl     -0.4039629287    -1.8635533280    -1.8207626886
    7      Cl      0.2786693533    -1.8542038218     1.8353291893
    8      C      -2.8384393718    -1.3387765377     0.8016471820
    9      C      -4.2114651809    -1.4325434463     0.8696568193
   10      C      -4.9755761566    -0.4718104156     0.2299940925
   11      C      -4.3336463114     0.5437907055    -0.4601629206
   12      C      -2.9505734168     0.5858026945    -0.4877212026
   13      C       2.9744774753     0.3955368116     0.4771012941
   14      C       4.3542500911     0.2973868410     0.4027982376
   15      C       4.9303732345    -0.7132731682    -0.3479063136
   16      C       4.1052126308    -1.6136060655    -1.0010829997
   17      C       2.7407488052    -1.4637033616    -0.8873514044
   18      C       2.4220205532     1.4923757314     1.3545424650
   19      C       0.0512172695     3.0830116643     0.7358402467
   20      C       0.2250785331     3.0567809185    -0.7681225404
   21      C      -2.3161295130     1.7058481313    -1.2767886654
   22      H      -2.2176461468    -2.0667957677     1.2718656340
   23      H      -4.6613007822    -2.2447263272     1.4003708608
   24      H      -6.0458128221    -0.5155200755     0.2545112496
   25      H      -4.8998556606     1.2884813976    -0.9817649620
   26      H       4.9668134895     0.9945334120     0.9378395425
   27      H       5.9964705626    -0.8006660508    -0.4093530788
   28      H       4.5027867423    -2.4208593398    -1.5790208356
   29      H       2.0758933812    -2.1433559095    -1.3687630873
   30      H       2.6873899414     2.4620505530     0.9604182469
   31      H       2.8416982158     1.4089386791     2.3438124366
   32      H       0.6248778042     3.8875060264     1.1720969135
   33      H      -0.9771383201     3.2275436252     1.0288093568
   34      H       1.2619492230     3.0665567221    -1.0657089056
   35      H      -0.2530923567     3.9117686027    -1.2226449687
   36      H      -2.7818175704     1.7784178462    -2.2454186916
   37      H      -2.4525195362     2.6495979037    -0.7696383443
 ----------------------------------------------------------------
 Molecular Point Group                 C1    NOp =  1
 Largest Abelian Subgroup              C1    NOp =  1
 Nuclear Repulsion Energy =        2859.53654199 hartrees
 There are      101 alpha and      101 beta electrons
 Applying Cartesian multipole field
    Component          Value
    ---------          -----
     (2,0,0)        1.00000E-12
     (0,2,0)        2.00000E-11
     (0,0,2)       -3.00000E-11
 Nucleus-field energy     =     0.0000000103 hartrees
 Requested basis set is 6-31G
 There are 103 shells and 257 basis functions
 A cutoff of  1.0D-08 yielded   3004 shell pairs
 There are     22706 function pairs
 Smallest overlap matrix eigenvalue = 9.07E-04
 Guess MOs from SCF MO coefficient file

 -----------------------------------------------------------------------
  General SCF calculation program by
  Eric Jon Sundstrom, Paul Horn, Yuezhi Mao, Dmitri Zuev, Alec White,
  David Stuck, Shaama M.S., Shane Yost, Joonho Lee, David Small,
  Daniel Levine, Susi Lehtola, Hugh Burton, Evgeny Epifanovsky
 -----------------------------------------------------------------------
 Hartree-Fock
 using 8 threads for integral computing
 -------------------------------------------------------
 OpenMP Integral computing Module                
 Release: version 2.0, May 2017, Q-Chem Inc. Pleasanton 
 -------------------------------------------------------
 A restricted SCF calculation will be
 performed using DIIS, GDM
 SCF converges when RMS gradient is below 1.0e-04
 ---------------------------------------
  Cycle       Energy         DIIS error
 ---------------------------------------
    1   -3304.7629192685      4.23e-04  
    2   -3304.7654482656      1.18e-04  Done DIIS. Switching to GDM
 ---------------------------------------
  Cycle       Energy        RMS Gradient
 ---------------------------------------
    1   -3304.7654482656      4.66e-03   Normal BFGS step
    2   -3304.7657743885      1.78e-03   Normal BFGS step
    3   -3304.7658390701      9.56e-04   Normal BFGS step
    4   -3304.7658509106      2.12e-04   Normal BFGS step
    5   -3304.7658543617      1.59e-04   Normal BFGS step
    6   -3304.7658539659      1.50e-04  Line search: overstep
    7   -3304.7658541635      1.57e-04  Line search: overstep
    8   -3304.7658517051      1.59e-04  Line search: overstep
    9   -3304.7658471324      1.59e-04  Line search: overstep
   10   -3304.7658461722      1.59e-04  Line search: overstep
   11   -3304.7658469253      1.59e-04  Line search: overstep
   12   -3304.7658469235      1.59e-04  Line search: overstep
   13   -3304.7658469287      1.59e-04  Line search: overstep
   14   -3304.7658469292      1.59e-04  Line search: overstep
   15   -3304.7658469293      1.59e-04  Line search: overstep
   16   -3304.7658469293      1.59e-04  Line search: overstep
   17   -3304.7658469293      1.59e-04  Line search: overstep
   18   -3304.7658469293      1.59e-04  Line search: overstep
   19   -3304.7658469293      1.59e-04  Line search: overstep
   20   -3304.7658469293      1.59e-04  Line search: overstep
   21   -3304.7658469293      1.59e-04  Line search: overstep
  GDM::   16 failed line searches.  Resetting
   22   -3304.7658469293      1.59e-04  Line search: overstep
  GDM::   17 failed line searches.  Resetting
   23   -3304.7658469293      1.59e-04  Line search: overstep
  GDM::   18 failed line searches.  Resetting
   24   -3304.7658469293      1.59e-04  Line search: overstep
  GDM::   19 failed line searches.  Resetting
   25   -3304.7658469293      1.59e-04  Line search: overstep
  GDM::   20 failed line searches.  Resetting
   26   -3304.7658469293      1.59e-04  Line search: overstep
  GDM::   21 failed line searches.  Resetting
   27   -3304.7658469293      1.59e-04  Line search: overstep
  GDM::   22 failed line searches.  Resetting
   28   -3304.7658469293      1.59e-04  Line search: overstep
  GDM::   23 failed line searches.  Resetting
   29   -3304.7658469293      1.59e-04  Line search: overstep
  GDM::   24 failed line searches.  Resetting
   30   -3304.7658469293      1.59e-04  Line search: overstep
  GDM::   25 failed line searches.  Resetting
   31   -3304.7658469293      1.59e-04  Line search: overstep
  GDM::   26 failed line searches.  Resetting
   32   -3304.7658469293      1.59e-04  Line search: overstep
  GDM::   27 failed line searches.  Resetting
   33   -3304.7658469293      1.59e-04  Line search: overstep
  GDM::   28 failed line searches.  Resetting
   34   -3304.7658469293      1.59e-04  Line search: overstep
  GDM::   29 failed line searches.  Resetting
   35   -3304.7658469293      1.59e-04  Line search: overstep
  GDM::   30 failed line searches.  Resetting
   36   -3304.7658469293      1.59e-04  Line search: overstep
  GDM::   31 failed line searches.  Resetting
   37   -3304.7658469293      1.59e-04  Line search: overstep
  GDM::   32 failed line searches.  Resetting
   38   -3304.7658469293      1.59e-04  Line search: overstep
  GDM::   33 failed line searches.  Resetting
   39   -3304.7658469293      1.59e-04  Line search: overstep
  GDM::   34 failed line searches.  Resetting
   40   -3304.7658469293      1.59e-04  Line search: overstep
  GDM::   35 failed line searches.  Resetting
   41   -3304.7658469293      1.59e-04  Line search: overstep
  GDM::   36 failed line searches.  Resetting
   42   -3304.7658469293      1.59e-04  Line search: overstep
  GDM::   37 failed line searches.  Resetting
   43   -3304.7658469293      1.59e-04  Line search: overstep
  GDM::   38 failed line searches.  Resetting
   44   -3304.7658469293      1.59e-04  Line search: overstep
  GDM::   39 failed line searches.  Resetting
   45   -3304.7658469293      1.59e-04  Line search: overstep
  GDM::   40 failed line searches.  Resetting
   46   -3304.7658469293      1.59e-04  Line search: overstep
  GDM::   41 failed line searches.  Resetting
   47   -3304.7658469293      1.59e-04  Line search: overstep
  GDM::   42 failed line searches.  Resetting
   48   -3304.7658469293      1.59e-04  Line search: overstep
  GDM::   43 failed line searches.  Resetting
   49   -3304.7658469293      1.59e-04  Line search: overstep
  GDM::   44 failed line searches.  Resetting
   50   -3304.7658469293      1.59e-04  Line search: overstep
  GDM::   45 failed line searches.  Resetting
   51   -3304.7658469293      1.59e-04  Line search: overstep
  GDM::   46 failed line searches.  Resetting
   52   -3304.7658469293      1.59e-04  Line search: overstep
  GDM::   47 failed line searches.  Resetting
   53   -3304.7658469293      1.59e-04  Line search: overstep
  GDM::   48 failed line searches.  Resetting
   54   -3304.7658469293      1.59e-04  Line search: overstep
  GDM::   49 failed line searches.  Resetting
   55   -3304.7658469293      1.59e-04  Line search: overstep
  GDM::   50 failed line searches.  Resetting
   56   -3304.7658469293      1.59e-04  Line search: overstep
  GDM::   51 failed line searches.  Resetting
   57   -3304.7658469293      1.59e-04  Line search: overstep
  GDM::   52 failed line searches.  Resetting
   58   -3304.7658469293      1.59e-04  Line search: overstep
  GDM::   53 failed line searches.  Resetting
   59   -3304.7658469293      1.59e-04  Line search: overstep
  GDM::   54 failed line searches.  Resetting
   60   -3304.7658469293      1.59e-04  Line search: overstep
  GDM::   55 failed line searches.  Resetting
   61   -3304.7658469293      1.59e-04  Line search: overstep
  GDM::   56 failed line searches.  Resetting
   62   -3304.7658469293      1.59e-04  Line search: overstep
  GDM::   57 failed line searches.  Resetting
   63   -3304.7658469293      1.59e-04  Line search: overstep
  GDM::   58 failed line searches.  Resetting
   64   -3304.7658469293      1.59e-04  Line search: overstep
  GDM::   59 failed line searches.  Resetting
   65   -3304.7658469293      1.59e-04  Line search: overstep
  GDM::   60 failed line searches.  Resetting
   66   -3304.7658469293      1.59e-04  Line search: overstep
  GDM::   61 failed line searches.  Resetting
   67   -3304.7658469293      1.59e-04  Line search: overstep
  GDM::   62 failed line searches.  Resetting
   68   -3304.7658469293      1.59e-04  Line search: overstep
  GDM::   63 failed line searches.  Resetting
   69   -3304.7658469293      1.59e-04  Line search: overstep
  GDM::   64 failed line searches.  Resetting
   70   -3304.7658469293      1.59e-04  Line search: overstep
  GDM::   65 failed line searches.  Resetting
   71   -3304.7658469293      1.59e-04  Line search: overstep
  GDM::   66 failed line searches.  Resetting
   72   -3304.7658469293      1.59e-04  Line search: overstep
  GDM::   67 failed line searches.  Resetting
   73   -3304.7658469293      1.59e-04  Line search: overstep
  GDM::   68 failed line searches.  Resetting
   74   -3304.7658469293      1.59e-04  Line search: overstep
  GDM::   69 failed line searches.  Resetting
   75   -3304.7658469293      1.59e-04  Line search: overstep
  GDM::   70 failed line searches.  Resetting
   76   -3304.7658469293      1.59e-04  Line search: overstep
  GDM::   71 failed line searches.  Resetting
   77   -3304.7658469293      1.59e-04  Line search: overstep
  GDM::   72 failed line searches.  Resetting
   78   -3304.7658469293      1.59e-04  Line search: overstep
  GDM::   73 failed line searches.  Resetting
   79   -3304.7658469293      1.59e-04  Line search: overstep
  GDM::   74 failed line searches.  Resetting
   80   -3304.7658469293      1.59e-04  Line search: overstep
  GDM::   75 failed line searches.  Resetting
   81   -3304.7658469293      1.59e-04  Line search: overstep
  GDM::   76 failed line searches.  Resetting
   82   -3304.7658469293      1.59e-04  Line search: overstep
  GDM::   77 failed line searches.  Resetting
   83   -3304.7658469293      1.59e-04  Line search: overstep
  GDM::   78 failed line searches.  Resetting
   84   -3304.7658469293      1.59e-04  Line search: overstep
  GDM::   79 failed line searches.  Resetting
   85   -3304.7658469293      1.59e-04  Line search: overstep
  GDM::   80 failed line searches.  Resetting
   86   -3304.7658469293      1.59e-04  Line search: overstep
  GDM::   81 failed line searches.  Resetting
   87   -3304.7658469293      1.59e-04  Line search: overstep
  GDM::   82 failed line searches.  Resetting
   88   -3304.7658469293      1.59e-04  Line search: overstep
  GDM::   83 failed line searches.  Resetting
   89   -3304.7658469293      1.59e-04  Line search: overstep
  GDM::   84 failed line searches.  Resetting
   90   -3304.7658469293      1.59e-04  Line search: overstep
  GDM::   85 failed line searches.  Resetting
   91   -3304.7658469293      1.59e-04  Line search: overstep
  GDM::   86 failed line searches.  Resetting
   92   -3304.7658469293      1.59e-04  Line search: overstep
  GDM::   87 failed line searches.  Resetting
   93   -3304.7658469293      1.59e-04  Line search: overstep
  GDM::   88 failed line searches.  Resetting
   94   -3304.7658469293      1.59e-04  Line search: overstep
  GDM::   89 failed line searches.  Resetting
   95   -3304.7658469293      1.59e-04  Line search: overstep
  GDM::   90 failed line searches.  Resetting
   96   -3304.7658469293      1.59e-04  Line search: overstep
  GDM::   91 failed line searches.  Resetting
   97   -3304.7658469293      1.59e-04  Line search: overstep
  GDM::   92 failed line searches.  Resetting
   98   -3304.7658469293      1.59e-04  Line search: overstep
  GDM::   93 failed line searches.  Resetting
   99   -3304.7658469293      1.59e-04  Line search: overstep
  GDM::   94 failed line searches.  Resetting
  100   -3304.7658469293      1.59e-04  Line search: overstep
  GDM::   95 failed line searches.  Resetting
  101   -3304.7658469293      1.59e-04  Line search: overstep
  GDM::   96 failed line searches.  Resetting
  102   -3304.7658469293      1.59e-04  Line search: overstep
  GDM::   97 failed line searches.  Resetting
  103   -3304.7658469293      1.59e-04  Line search: overstep
  GDM::   98 failed line searches.  Resetting
  104   -3304.7658469293      1.59e-04  Line search: overstep
  GDM::   99 failed line searches.  Resetting
  105   -3304.7658469293      1.59e-04  Line search: overstep
  GDM::   100 failed line searches.  Resetting
  106   -3304.7658469293      1.59e-04  Line search: overstep
  GDM::   101 failed line searches.  Resetting
  107   -3304.7658469293      1.59e-04  Line search: overstep
  GDM::   102 failed line searches.  Resetting
  108   -3304.7658469293      1.59e-04  Line search: overstep
  GDM::   103 failed line searches.  Resetting
  109   -3304.7658469293      1.59e-04  Line search: overstep
  GDM::   104 failed line searches.  Resetting
  110   -3304.7658469293      1.59e-04  Line search: overstep
  GDM::   105 failed line searches.  Resetting
  111   -3304.7658469293      1.59e-04  Line search: overstep
  GDM::   106 failed line searches.  Resetting
  112   -3304.7658469293      1.59e-04  Line search: overstep
  GDM::   107 failed line searches.  Resetting
  113   -3304.7658469293      1.59e-04  Line search: overstep
  GDM::   108 failed line searches.  Resetting
  114   -3304.7658469293      1.59e-04  Line search: overstep
  GDM::   109 failed line searches.  Resetting
  115   -3304.7658469293      1.59e-04  Line search: overstep
  GDM::   110 failed line searches.  Resetting
  116   -3304.7658469293      1.59e-04  Line search: overstep
  GDM::   111 failed line searches.  Resetting
  117   -3304.7658469293      1.59e-04  Line search: overstep
  GDM::   112 failed line searches.  Resetting
  118   -3304.7658469293      1.59e-04  Line search: overstep
  GDM::   113 failed line searches.  Resetting
  119   -3304.7658469293      1.59e-04  Line search: overstep
  GDM::   114 failed line searches.  Resetting
  120   -3304.7658469293      1.59e-04  Line search: overstep
  GDM::   115 failed line searches.  Resetting
  121   -3304.7658469293      1.59e-04  Line search: overstep
  GDM::   116 failed line searches.  Resetting
  122   -3304.7658469293      1.59e-04  Line search: overstep
  GDM::   117 failed line searches.  Resetting
  123   -3304.7658469293      1.59e-04  Line search: overstep
  GDM::   118 failed line searches.  Resetting
  124   -3304.7658469293      1.59e-04  Line search: overstep
  GDM::   119 failed line searches.  Resetting
  125   -3304.7658469293      1.59e-04  Line search: overstep
  GDM::   120 failed line searches.  Resetting
  126   -3304.7658469293      1.59e-04  Line search: overstep
  GDM::   121 failed line searches.  Resetting
  127   -3304.7658469293      1.59e-04  Line search: overstep
  GDM::   122 failed line searches.  Resetting
  128   -3304.7658469293      1.59e-04  Line search: overstep
  GDM::   123 failed line searches.  Resetting
  129   -3304.7658469293      1.59e-04  Line search: overstep
  GDM::   124 failed line searches.  Resetting
  130   -3304.7658469293      1.59e-04  Line search: overstep
  GDM::   125 failed line searches.  Resetting
  131   -3304.7658469293      1.59e-04  Line search: overstep
  GDM::   126 failed line searches.  Resetting
  132   -3304.7658469293      1.59e-04  Line search: overstep
  GDM::   127 failed line searches.  Resetting
  133   -3304.7658469293      1.59e-04  Line search: overstep
  GDM::   128 failed line searches.  Resetting
  134   -3304.7658469293      1.59e-04  Line search: overstep
  GDM::   129 failed line searches.  Resetting
  135   -3304.7658469293      1.59e-04  Line search: overstep
  GDM::   130 failed line searches.  Resetting
  136   -3304.7658469293      1.59e-04  Line search: overstep
  GDM::   131 failed line searches.  Resetting
  137   -3304.7658469293      1.59e-04  Line search: overstep
  GDM::   132 failed line searches.  Resetting
  138   -3304.7658469293      1.59e-04  Line search: overstep
  GDM::   133 failed line searches.  Resetting
  139   -3304.7658469293      1.59e-04  Line search: overstep
  GDM::   134 failed line searches.  Resetting
  140   -3304.7658469293      1.59e-04  Line search: overstep
  GDM::   135 failed line searches.  Resetting
  141   -3304.7658469293      1.59e-04  Line search: overstep
  GDM::   136 failed line searches.  Resetting
  142   -3304.7658469293      1.59e-04  Line search: overstep
  GDM::   137 failed line searches.  Resetting
  143   -3304.7658469293      1.59e-04  Line search: overstep
  GDM::   138 failed line searches.  Resetting
  144   -3304.7658469293      1.59e-04  Line search: overstep
  GDM::   139 failed line searches.  Resetting
  145   -3304.7658469293      1.59e-04  Line search: overstep
  GDM::   140 failed line searches.  Resetting
  146   -3304.7658469293      1.59e-04  Line search: overstep
  GDM::   141 failed line searches.  Resetting
  147   -3304.7658469293      1.59e-04  Line search: overstep
  GDM::   142 failed line searches.  Resetting
  148   -3304.7658469293      1.59e-04  Line search: overstep
  GDM::   143 failed line searches.  Resetting
  149   -3304.7658469293      1.59e-04  Line search: overstep
  GDM::   144 failed line searches.  Resetting
  150   -3304.7658469293      1.59e-04  Line search: overstep
  GDM::   145 failed line searches.  Resetting
  151   -3304.7658469293      1.59e-04  Line search: overstep
  GDM::   146 failed line searches.  Resetting
  152   -3304.7658469293      1.59e-04  Line search: overstep
  GDM::   147 failed line searches.  Resetting
  153   -3304.7658469293      1.59e-04  Line search: overstep
  GDM::   148 failed line searches.  Resetting
  154   -3304.7658469293      1.59e-04  Line search: overstep
  GDM::   149 failed line searches.  Resetting
  155   -3304.7658469293      1.59e-04  Line search: overstep
  GDM::   150 failed line searches.  Resetting
  156   -3304.7658469293      1.59e-04  Line search: overstep
  GDM::   151 failed line searches.  Resetting
