 &FCI NORB=   6,NELEC= 6,MS2=0,
  ORBSYM=2,2,0,0,1,1
  NPROP=   3    1    1
  PROPBITLEN=   8
  ISYM=1,
 &END
 (0.08274265530504465,1.462449065874795e-17)    1    1    1    1
 (-2.47950605479034e-06,0.0005026536648164108)    1    1    1    2
 (-2.47950605479381e-06,-0.0005026536648163798)    1    1    2    1
 (0.08576437950617867,2.418199060990967e-17)    1    1    2    2
 (-2.479506055634573e-06,0.0005026536648163624)    1    2    1    1
 (0.08120124794164123,0.0008011382031676679)    1    2    1    2
 (0.08123020396658179,-2.039655336988355e-18)    1    2    2    1
 (-2.205619147645684e-06,0.0004471136401589298)    1    2    2    2
 (-2.479506055634573e-06,-0.0005026536648164259)    2    1    1    1
 (0.08123020396658182,-4.621411760219463e-18)    2    1    1    2
 (0.08120124794164123,-0.0008011382031676749)    2    1    2    1
 (-2.205619147645684e-06,-0.0004471136401590131)    2    1    2    2
 (0.08576437950617995,2.379529960904802e-17)    2    2    1    1
 (-2.205619145546668e-06,0.000447113640158978)    2    2    1    2
 (-2.205619145547825e-06,-0.0004471136401589483)    2    2    2    1
 (0.09024674161245197,3.514390863933961e-17)    2    2    2    2
 (0.08186093581182831,1.439319908845319e-17)    1    1    3    3
 (0.08690927563671763,2.426794594291442e-17)    1    1    4    4
 (-2.398183224320075e-06,0.0004861670808367863)    1    2    3    3
 (-0.08135253028106317,-0.0004013056181145857)    1    2    3    4
 (-0.08135253028106317,-0.0004013056181145809)    1    2    4    3
 (-2.300021180991207e-06,0.0004662516364352492)    1    2    4    4
 (-2.398183224327013e-06,-0.0004861670808367577)    2    1    3    3
 (-0.08135253028106317,0.0004013056181145883)    2    1    3    4
 (-0.08135253028106317,0.0004013056181145932)    2    1    4    3
 (-2.300021181000459e-06,-0.0004662516364352186)    2    1    4    4
 (0.08490551084813504,2.399894637478594e-17)    2    2    3    3
 (0.09139354392753087,3.559325499120458e-17)    2    2    4    4
 (0.08274265530504465,1.462449065874791e-17)    1    1    5    5
 (-2.479506055639198e-06,-0.0005026536648164253)    1    1    5    6
 (-2.479506055639198e-06,0.0005026536648163616)    1    1    6    5
 (0.08576437950617996,2.379529960904805e-17)    1    1    6    6
 (-2.479506054679318e-06,0.0005026536648164113)    1    2    5    5
 (0.0812302039665818,-2.590791441335153e-18)    1    2    5    6
 (0.08120124794164121,0.0008011382031676651)    1    2    6    5
 (-2.205619145642657e-06,0.0004471136401589774)    1    2    6    6
 (-2.479506054683944e-06,-0.0005026536648163803)    2    1    5    5
 (0.08120124794164121,-0.0008011382031676724)    2    1    5    6
 (0.08123020396658179,-4.113191991866882e-18)    2    1    6    5
 (-2.20561914566116e-06,-0.0004471136401589477)    2    1    6    6
 (0.08576437950617861,2.418199060990963e-17)    2    2    5    5
 (-2.205619147638745e-06,-0.0004471136401590125)    2    2    5    6
 (-2.205619147638745e-06,0.0004471136401589292)    2    2    6    5
 (0.09024674161245194,3.514390863933967e-17)    2    2    6    6
 (0.1634349442590131,0.01702841292650163)    1    3    1    5
 (0.003912453581370633,-0.03943732789841327)    1    3    1    6
 (0.003912453581370835,-0.03943732789841325)    1    3    2    5
 (0.1652783790589717,0.01557382257204559)    1    3    2    6
 (0.001491244165239737,-0.01431263252106675)    1    4    1    5
 (-0.100549458173893,-0.00997519617450426)    1    4    1    6
 (-0.100549458173893,-0.009975196174504274)    1    4    2    5
 (0.001292617882025716,-0.01371800529322558)    1    4    2    6
 (-0.001388326507321389,0.01399425943568825)    2    3    1    5
 (0.1000394901657035,0.009426503794176078)    2    3    1    6
 (0.1000394901657035,0.009426503794176099)    2    3    2    5
 (-0.00120373855994002,0.01348674941244776)    2    3    2    6
 (-0.1659162776407803,-0.01646003315532456)    2    4    1    5
 (-0.003779582337555675,0.04011110625030745)    2    4    1    6
 (-0.003779582337555895,0.04011110625030744)    2    4    2    5
 (-0.1691593804648746,-0.01509805314710435)    2    4    2    6
 (0.1670203226102255,-3.68917859224401e-16)    1    3    3    1
 (0.0001145993432920498,-0.02323152801417375)    1    3    3    2
 (-5.624500633757042e-11,0.02358038555127423)    1    3    4    1
 (-0.1694636385879515,-0.0008359507931346837)    1    3    4    2
 (-5.624413434990316e-11,-0.02358038555127426)    1    4    3    1
 (-0.09900294903198062,-0.0004883737410329818)    1    4    3    2
 (0.0995539730142897,2.6078676255518e-16)    1    4    4    1
 (-0.0001180590620086704,0.02393288123652593)    1    4    4    2
 (0.0001145993432924199,0.02323152801417354)    2    3    3    1
 (0.09849347059890826,-7.401486830834377e-17)    2    3    3    2
 (-0.09900294903198348,0.0004883737410331095)    2    3    4    1
 (5.443598349863521e-11,-0.02360546957754622)    2    3    4    2
 (-0.1694636385879528,0.0008359507931352747)    2    4    3    1
 (5.443274534814672e-11,0.02360546957754634)    2    4    3    2
 (-0.0001180590620119872,-0.02393288123652578)    2    4    4    1
 (0.1733685146608734,-2.278270165116206e-16)    2    4    4    2
 (0.1670203226102255,4.250072516143177e-16)    1    3    5    3
 (-5.624427891019283e-11,0.02358038555127433)    1    3    5    4
 (0.0001145993432922985,-0.02323152801417363)    1    3    6    3
 (-0.1694636385879526,-0.0008359507931354022)    1    3    6    4
 (-5.624507919595641e-11,-0.02358038555127418)    1    4    5    3
 (0.0995539730142897,-1.827242061362237e-16)    1    4    5    4
 (-0.09900294903198348,-0.0004883737410331338)    1    4    6    3
 (-0.0001180590620120595,0.0239328812365257)    1    4    6    4
 (0.0001145993432920892,0.02323152801417371)    2    3    5    3
 (-0.09900294903198065,0.0004883737410328965)    2    3    5    4
 (0.09849347059890824,1.150699905731282e-16)    2    3    6    3
 (5.443283728849094e-11,-0.02360546957754629)    2    3    6    4
 (-0.1694636385879515,0.0008359507931346504)    2    4    5    3
 (-0.0001180590620085409,-0.02393288123652602)    2    4    5    4
 (5.443611996354865e-11,0.02360546957754631)    2    4    6    3
 (0.1733685146608733,3.747002708109903e-16)    2    4    6    4
 (0.1634349442590131,0.01702841292650163)    1    5    1    3
 (0.001491244165239737,-0.01431263252106675)    1    5    1    4
 (-0.001388326507321389,0.01399425943568825)    1    5    2    3
 (-0.1659162776407803,-0.01646003315532456)    1    5    2    4
 (0.003912453581370633,-0.03943732789841327)    1    6    1    3
 (-0.100549458173893,-0.00997519617450426)    1    6    1    4
 (0.1000394901657035,0.009426503794176078)    1    6    2    3
 (-0.003779582337555675,0.04011110625030745)    1    6    2    4
 (0.003912453581370835,-0.03943732789841325)    2    5    1    3
 (-0.100549458173893,-0.009975196174504274)    2    5    1    4
 (0.1000394901657035,0.009426503794176099)    2    5    2    3
 (-0.003779582337555895,0.04011110625030744)    2    5    2    4
 (0.1652783790589717,0.01557382257204559)    2    6    1    3
 (0.001292617882025716,-0.01371800529322558)    2    6    1    4
 (-0.00120373855994002,0.01348674941244776)    2    6    2    3
 (-0.1691593804648746,-0.01509805314710435)    2    6    2    4
 (0.1634349442590129,0.01702841292650152)    1    5    3    5
 (-0.001388326507317331,0.01399425943568778)    1    5    3    6
 (0.001491244165238676,-0.014312632521067)    1    5    4    5
 (-0.1659162776407827,-0.01646003315532496)    1    5    4    6
 (0.00391245358136957,-0.03943732789841396)    1    6    3    5
 (0.1000394901657034,0.009426503794176058)    1    6    3    6
 (-0.1005494581738941,-0.009975196174504196)    1    6    4    5
 (-0.00377958233755704,0.04011110625030703)    1    6    4    6
 (0.003912453581369782,-0.03943732789841393)    2    5    3    5
 (0.1000394901657034,0.009426503794176071)    2    5    3    6
 (-0.1005494581738941,-0.009975196174504207)    2    5    4    5
 (-0.003779582337557208,0.040111106250307)    2    5    4    6
 (0.1652783790589725,0.01557382257204543)    2    6    3    5
 (-0.001203738559945268,0.01348674941244759)    2    6    3    6
 (0.001292617882025225,-0.01371800529322558)    2    6    4    5
 (-0.1691593804648764,-0.01509805314710489)    2    6    4    6
 (0.1624948351125007,-3.475229363540203e-16)    1    5    5    1
 (-0.0001491575476462055,0.03023717583700719)    1    5    5    2
 (-0.0001491575476464032,0.0302371758370072)    1    5    6    1
 (0.1641806377344492,0.00161981966782082)    1    5    6    2
 (-0.0001491575476487277,-0.03023717583700719)    1    6    5    1
 (0.1040930452518483,1.590163186312073e-17)    1    6    5    2
 (0.1040930452518483,6.216092455583558e-17)    1    6    6    1
 (0.0001474677879644258,-0.02989462809413471)    1    6    6    2
 (-0.0001491575476485057,-0.03023717583700719)    2    5    5    1
 (0.1040930452518483,5.522203065192836e-17)    2    5    5    2
 (0.1040930452518483,9.194034422677078e-17)    2    5    6    1
 (0.0001474677879645912,-0.02989462809413471)    2    5    6    2
 (0.164180637734448,-0.001619819667821107)    2    6    5    1
 (0.0001474677879607274,0.02989462809413502)    2    6    5    2
 (0.0001474677879605002,0.02989462809413503)    2    6    6    1
 (0.1673679453628018,-2.573173156032264e-16)    2    6    6    2
 (0.1670203226102255,-3.68917859224401e-16)    3    1    1    3
 (-5.624413434990316e-11,-0.02358038555127426)    3    1    1    4
 (0.0001145993432924199,0.02323152801417354)    3    1    2    3
 (-0.1694636385879528,0.0008359507931352747)    3    1    2    4
 (0.0001145993432920498,-0.02323152801417375)    3    2    1    3
 (-0.09900294903198062,-0.0004883737410329818)    3    2    1    4
 (0.09849347059890826,-7.401486830834377e-17)    3    2    2    3
 (5.443274534814672e-11,0.02360546957754634)    3    2    2    4
 (-5.624500633757042e-11,0.02358038555127423)    4    1    1    3
 (0.0995539730142897,2.6078676255518e-16)    4    1    1    4
 (-0.09900294903198348,0.0004883737410331095)    4    1    2    3
 (-0.0001180590620119872,-0.02393288123652578)    4    1    2    4
 (-0.1694636385879515,-0.0008359507931346837)    4    2    1    3
 (-0.0001180590620086704,0.02393288123652593)    4    2    1    4
 (5.443598349863521e-11,-0.02360546957754622)    4    2    2    3
 (0.1733685146608734,-2.278270165116206e-16)    4    2    2    4
 (0.1670203226102255,-4.250072516143177e-16)    3    1    3    5
 (0.0001145993432922985,0.02323152801417363)    3    1    3    6
 (-5.624427891019283e-11,-0.02358038555127433)    3    1    4    5
 (-0.1694636385879526,0.0008359507931354022)    3    1    4    6
 (0.0001145993432920892,-0.02323152801417371)    3    2    3    5
 (0.09849347059890824,-1.150699905731282e-16)    3    2    3    6
 (-0.09900294903198065,-0.0004883737410328965)    3    2    4    5
 (5.443283728849094e-11,0.02360546957754629)    3    2    4    6
 (-5.624507919595641e-11,0.02358038555127418)    4    1    3    5
 (-0.09900294903198348,0.0004883737410331338)    4    1    3    6
 (0.0995539730142897,1.827242061362237e-16)    4    1    4    5
 (-0.0001180590620120595,-0.0239328812365257)    4    1    4    6
 (-0.1694636385879515,-0.0008359507931346504)    4    2    3    5
 (5.443611996354865e-11,-0.02360546957754631)    4    2    3    6
 (-0.0001180590620085409,0.02393288123652602)    4    2    4    5
 (0.1733685146608733,-3.747002708109903e-16)    4    2    4    6
 (0.1634349442590131,-0.01702841292650163)    3    1    5    1
 (0.003912453581370835,0.03943732789841325)    3    1    5    2
 (0.003912453581370633,0.03943732789841327)    3    1    6    1
 (0.1652783790589717,-0.01557382257204559)    3    1    6    2
 (-0.001388326507321389,-0.01399425943568825)    3    2    5    1
 (0.1000394901657035,-0.009426503794176099)    3    2    5    2
 (0.1000394901657035,-0.009426503794176078)    3    2    6    1
 (-0.00120373855994002,-0.01348674941244776)    3    2    6    2
 (0.001491244165239737,0.01431263252106675)    4    1    5    1
 (-0.100549458173893,0.009975196174504274)    4    1    5    2
 (-0.100549458173893,0.00997519617450426)    4    1    6    1
 (0.001292617882025716,0.01371800529322558)    4    1    6    2
 (-0.1659162776407803,0.01646003315532456)    4    2    5    1
 (-0.003779582337555895,-0.04011110625030744)    4    2    5    2
 (-0.003779582337555675,-0.04011110625030745)    4    2    6    1
 (-0.1691593804648746,0.01509805314710435)    4    2    6    2
 (0.08186093581182831,1.439319908845319e-17)    3    3    1    1
 (-2.398183224320075e-06,0.0004861670808367863)    3    3    1    2
 (-2.398183224327013e-06,-0.0004861670808367577)    3    3    2    1
 (0.08490551084813504,2.399894637478594e-17)    3    3    2    2
 (-0.08135253028106317,-0.0004013056181145857)    3    4    1    2
 (-0.08135253028106317,0.0004013056181145883)    3    4    2    1
 (-0.08135253028106317,-0.0004013056181145809)    4    3    1    2
 (-0.08135253028106317,0.0004013056181145932)    4    3    2    1
 (0.08690927563671763,2.426794594291442e-17)    4    4    1    1
 (-2.300021180991207e-06,0.0004662516364352492)    4    4    1    2
 (-2.300021181000459e-06,-0.0004662516364352186)    4    4    2    1
 (0.09139354392753087,3.559325499120458e-17)    4    4    2    2
 (0.08100304986196907,1.463419590374695e-17)    3    3    3    3
 (0.08602156026990884,2.385304398852238e-17)    3    3    4    4
 (0.08148956550829289,6.881453090837141e-18)    3    4    3    4
 (0.08148956550829289,-7.592772625704049e-19)    3    4    4    3
 (0.08148956550829289,-5.072564775707998e-18)    4    3    3    4
 (0.08148956550829289,-1.271329512911564e-17)    4    3    4    3
 (0.08602156026990831,2.438726480086434e-17)    4    4    3    3
 (0.09257586830486653,3.577333624661664e-17)    4    4    4    4
 (0.08186093581182713,1.486220205878391e-17)    3    3    5    5
 (-2.398183223453291e-06,-0.000486167080836803)    3    3    5    6
 (-2.398183223453291e-06,0.0004861670808367401)    3    3    6    5
 (0.08490551084813594,2.392095832693721e-17)    3    3    6    6
 (-0.08135253028106322,0.0004013056181145874)    3    4    5    6
 (-0.08135253028106322,-0.0004013056181145867)    3    4    6    5
 (-0.08135253028106322,0.0004013056181145931)    4    3    5    6
 (-0.08135253028106322,-0.0004013056181145809)    4    3    6    5
 (0.08690927563671724,2.404907149910723e-17)    4    4    5    5
 (-2.300021180850116e-06,-0.0004662516364352735)    4    4    5    6
 (-2.300021180850116e-06,0.0004662516364351872)    4    4    6    5
 (0.09139354392752966,3.530200242246682e-17)    4    4    6    6
 (0.1634349442590129,0.01702841292650152)    3    5    1    5
 (0.00391245358136957,-0.03943732789841396)    3    5    1    6
 (0.003912453581369782,-0.03943732789841393)    3    5    2    5
 (0.1652783790589725,0.01557382257204543)    3    5    2    6
 (-0.001388326507317331,0.01399425943568778)    3    6    1    5
 (0.1000394901657034,0.009426503794176058)    3    6    1    6
 (0.1000394901657034,0.009426503794176071)    3    6    2    5
 (-0.001203738559945268,0.01348674941244759)    3    6    2    6
 (0.001491244165238676,-0.014312632521067)    4    5    1    5
 (-0.1005494581738941,-0.009975196174504196)    4    5    1    6
 (-0.1005494581738941,-0.009975196174504207)    4    5    2    5
 (0.001292617882025225,-0.01371800529322558)    4    5    2    6
 (-0.1659162776407827,-0.01646003315532496)    4    6    1    5
 (-0.00377958233755704,0.04011110625030703)    4    6    1    6
 (-0.003779582337557208,0.040111106250307)    4    6    2    5
 (-0.1691593804648764,-0.01509805314710489)    4    6    2    6
 (0.1670203226102255,-4.250072516143177e-16)    3    5    3    1
 (0.0001145993432920892,-0.02323152801417371)    3    5    3    2
 (-5.624507919595641e-11,0.02358038555127418)    3    5    4    1
 (-0.1694636385879515,-0.0008359507931346504)    3    5    4    2
 (0.0001145993432922985,0.02323152801417363)    3    6    3    1
 (0.09849347059890824,-1.150699905731282e-16)    3    6    3    2
 (-0.09900294903198348,0.0004883737410331338)    3    6    4    1
 (5.443611996354865e-11,-0.02360546957754631)    3    6    4    2
 (-5.624427891019283e-11,-0.02358038555127433)    4    5    3    1
 (-0.09900294903198065,-0.0004883737410328965)    4    5    3    2
 (0.0995539730142897,1.827242061362237e-16)    4    5    4    1
 (-0.0001180590620085409,0.02393288123652602)    4    5    4    2
 (-0.1694636385879526,0.0008359507931354022)    4    6    3    1
 (5.443283728849094e-11,0.02360546957754629)    4    6    3    2
 (-0.0001180590620120595,-0.0239328812365257)    4    6    4    1
 (0.1733685146608733,-3.747002708109903e-16)    4    6    4    2
 (0.1670203226102255,-3.650147314034531e-16)    3    5    5    3
 (-5.624521016757884e-11,0.02358038555127428)    3    5    5    4
 (0.0001145993432919885,-0.02323152801417378)    3    5    6    3
 (-0.1694636385879515,-0.0008359507931347527)    3    5    6    4
 (0.0001145993432923612,0.02323152801417358)    3    6    5    3
 (-0.09900294903198348,0.0004883737410330624)    3    6    5    4
 (0.09849347059890823,-9.14343832129442e-17)    3    6    6    3
 (5.443621219301346e-11,-0.02360546957754626)    3    6    6    4
 (-5.624433268662058e-11,-0.02358038555127428)    4    5    5    3
 (0.09955397301428967,2.75170511376821e-16)    4    5    5    4
 (-0.09900294903198056,-0.0004883737410329299)    4    5    6    3
 (-0.0001180590620086071,0.02393288123652597)    4    5    6    4
 (-0.1694636385879526,0.0008359507931353433)    4    6    5    3
 (-0.000118059062011945,-0.02393288123652579)    4    6    5    4
 (5.443293587860849e-11,0.02360546957754638)    4    6    6    3
 (0.1733685146608733,-2.732189474663471e-16)    4    6    6    4
 (0.1624948351125007,-3.475229363540203e-16)    5    1    1    5
 (-0.0001491575476487277,-0.03023717583700719)    5    1    1    6
 (-0.0001491575476485057,-0.03023717583700719)    5    1    2    5
 (0.164180637734448,-0.001619819667821107)    5    1    2    6
 (-0.0001491575476462055,0.03023717583700719)    5    2    1    5
 (0.1040930452518483,1.590163186312073e-17)    5    2    1    6
 (0.1040930452518483,5.522203065192836e-17)    5    2    2    5
 (0.0001474677879607274,0.02989462809413502)    5    2    2    6
 (-0.0001491575476464032,0.0302371758370072)    6    1    1    5
 (0.1040930452518483,6.216092455583558e-17)    6    1    1    6
 (0.1040930452518483,9.194034422677078e-17)    6    1    2    5
 (0.0001474677879605002,0.02989462809413503)    6    1    2    6
 (0.1641806377344492,0.00161981966782082)    6    2    1    5
 (0.0001474677879644258,-0.02989462809413471)    6    2    1    6
 (0.0001474677879645912,-0.02989462809413471)    6    2    2    5
 (0.1673679453628018,-2.573173156032264e-16)    6    2    2    6
 (0.1634349442590131,-0.01702841292650163)    5    1    3    1
 (-0.001388326507321389,-0.01399425943568825)    5    1    3    2
 (0.001491244165239737,0.01431263252106675)    5    1    4    1
 (-0.1659162776407803,0.01646003315532456)    5    1    4    2
 (0.003912453581370835,0.03943732789841325)    5    2    3    1
 (0.1000394901657035,-0.009426503794176099)    5    2    3    2
 (-0.100549458173893,0.009975196174504274)    5    2    4    1
 (-0.003779582337555895,-0.04011110625030744)    5    2    4    2
 (0.003912453581370633,0.03943732789841327)    6    1    3    1
 (0.1000394901657035,-0.009426503794176078)    6    1    3    2
 (-0.100549458173893,0.00997519617450426)    6    1    4    1
 (-0.003779582337555675,-0.04011110625030745)    6    1    4    2
 (0.1652783790589717,-0.01557382257204559)    6    2    3    1
 (-0.00120373855994002,-0.01348674941244776)    6    2    3    2
 (0.001292617882025716,0.01371800529322558)    6    2    4    1
 (-0.1691593804648746,0.01509805314710435)    6    2    4    2
 (0.1634349442590129,-0.01702841292650152)    5    1    5    3
 (0.001491244165238676,0.014312632521067)    5    1    5    4
 (-0.001388326507317331,-0.01399425943568778)    5    1    6    3
 (-0.1659162776407827,0.01646003315532496)    5    1    6    4
 (0.003912453581369782,0.03943732789841393)    5    2    5    3
 (-0.1005494581738941,0.009975196174504207)    5    2    5    4
 (0.1000394901657034,-0.009426503794176071)    5    2    6    3
 (-0.003779582337557208,-0.040111106250307)    5    2    6    4
 (0.00391245358136957,0.03943732789841396)    6    1    5    3
 (-0.1005494581738941,0.009975196174504196)    6    1    5    4
 (0.1000394901657034,-0.009426503794176058)    6    1    6    3
 (-0.00377958233755704,-0.04011110625030703)    6    1    6    4
 (0.1652783790589725,-0.01557382257204543)    6    2    5    3
 (0.001292617882025225,0.01371800529322558)    6    2    5    4
 (-0.001203738559945268,-0.01348674941244759)    6    2    6    3
 (-0.1691593804648764,0.01509805314710489)    6    2    6    4
 (0.1670203226102255,4.250072516143177e-16)    5    3    1    3
 (-5.624507919595641e-11,-0.02358038555127418)    5    3    1    4
 (0.0001145993432920892,0.02323152801417371)    5    3    2    3
 (-0.1694636385879515,0.0008359507931346504)    5    3    2    4
 (-5.624427891019283e-11,0.02358038555127433)    5    4    1    3
 (0.0995539730142897,-1.827242061362237e-16)    5    4    1    4
 (-0.09900294903198065,0.0004883737410328965)    5    4    2    3
 (-0.0001180590620085409,-0.02393288123652602)    5    4    2    4
 (0.0001145993432922985,-0.02323152801417363)    6    3    1    3
 (-0.09900294903198348,-0.0004883737410331338)    6    3    1    4
 (0.09849347059890824,1.150699905731282e-16)    6    3    2    3
 (5.443611996354865e-11,0.02360546957754631)    6    3    2    4
 (-0.1694636385879526,-0.0008359507931354022)    6    4    1    3
 (-0.0001180590620120595,0.0239328812365257)    6    4    1    4
 (5.443283728849094e-11,-0.02360546957754629)    6    4    2    3
 (0.1733685146608733,3.747002708109903e-16)    6    4    2    4
 (0.1670203226102255,-3.650147314034531e-16)    5    3    3    5
 (0.0001145993432923612,0.02323152801417358)    5    3    3    6
 (-5.624433268662058e-11,-0.02358038555127428)    5    3    4    5
 (-0.1694636385879526,0.0008359507931353433)    5    3    4    6
 (-5.624521016757884e-11,0.02358038555127428)    5    4    3    5
 (-0.09900294903198348,0.0004883737410330624)    5    4    3    6
 (0.09955397301428967,2.75170511376821e-16)    5    4    4    5
 (-0.000118059062011945,-0.02393288123652579)    5    4    4    6
 (0.0001145993432919885,-0.02323152801417378)    6    3    3    5
 (0.09849347059890823,-9.14343832129442e-17)    6    3    3    6
 (-0.09900294903198056,-0.0004883737410329299)    6    3    4    5
 (5.443293587860849e-11,0.02360546957754638)    6    3    4    6
 (-0.1694636385879515,-0.0008359507931347527)    6    4    3    5
 (5.443621219301346e-11,-0.02360546957754626)    6    4    3    6
 (-0.0001180590620086071,0.02393288123652597)    6    4    4    5
 (0.1733685146608733,-2.732189474663471e-16)    6    4    4    6
 (0.1634349442590129,-0.01702841292650152)    5    3    5    1
 (0.003912453581369782,0.03943732789841393)    5    3    5    2
 (0.00391245358136957,0.03943732789841396)    5    3    6    1
 (0.1652783790589725,-0.01557382257204543)    5    3    6    2
 (0.001491244165238676,0.014312632521067)    5    4    5    1
 (-0.1005494581738941,0.009975196174504207)    5    4    5    2
 (-0.1005494581738941,0.009975196174504196)    5    4    6    1
 (0.001292617882025225,0.01371800529322558)    5    4    6    2
 (-0.001388326507317331,-0.01399425943568778)    6    3    5    1
 (0.1000394901657034,-0.009426503794176071)    6    3    5    2
 (0.1000394901657034,-0.009426503794176058)    6    3    6    1
 (-0.001203738559945268,-0.01348674941244759)    6    3    6    2
 (-0.1659162776407827,0.01646003315532496)    6    4    5    1
 (-0.003779582337557208,-0.040111106250307)    6    4    5    2
 (-0.00377958233755704,-0.04011110625030703)    6    4    6    1
 (-0.1691593804648764,0.01509805314710489)    6    4    6    2
 (0.08274265530504465,1.462449065874791e-17)    5    5    1    1
 (-2.479506054679318e-06,0.0005026536648164113)    5    5    1    2
 (-2.479506054683944e-06,-0.0005026536648163803)    5    5    2    1
 (0.08576437950617861,2.418199060990963e-17)    5    5    2    2
 (-2.479506055639198e-06,-0.0005026536648164253)    5    6    1    1
 (0.0812302039665818,-2.590791441335153e-18)    5    6    1    2
 (0.08120124794164121,-0.0008011382031676724)    5    6    2    1
 (-2.205619147638745e-06,-0.0004471136401590125)    5    6    2    2
 (-2.479506055639198e-06,0.0005026536648163616)    6    5    1    1
 (0.08120124794164121,0.0008011382031676651)    6    5    1    2
 (0.08123020396658179,-4.113191991866882e-18)    6    5    2    1
 (-2.205619147638745e-06,0.0004471136401589292)    6    5    2    2
 (0.08576437950617996,2.379529960904805e-17)    6    6    1    1
 (-2.205619145642657e-06,0.0004471136401589774)    6    6    1    2
 (-2.20561914566116e-06,-0.0004471136401589477)    6    6    2    1
 (0.09024674161245194,3.514390863933967e-17)    6    6    2    2
 (0.08186093581182713,1.486220205878391e-17)    5    5    3    3
 (0.08690927563671724,2.404907149910723e-17)    5    5    4    4
 (-2.398183223453291e-06,-0.000486167080836803)    5    6    3    3
 (-0.08135253028106322,0.0004013056181145874)    5    6    3    4
 (-0.08135253028106322,0.0004013056181145931)    5    6    4    3
 (-2.300021180850116e-06,-0.0004662516364352735)    5    6    4    4
 (-2.398183223453291e-06,0.0004861670808367401)    6    5    3    3
 (-0.08135253028106322,-0.0004013056181145867)    6    5    3    4
 (-0.08135253028106322,-0.0004013056181145809)    6    5    4    3
 (-2.300021180850116e-06,0.0004662516364351872)    6    5    4    4
 (0.08490551084813594,2.392095832693721e-17)    6    6    3    3
 (0.09139354392752966,3.530200242246682e-17)    6    6    4    4
 (0.08274265530504465,1.553368617778203e-17)    5    5    5    5
 (-2.479506054683944e-06,-0.00050265366481638)    5    5    5    6
 (-2.479506054681631e-06,0.0005026536648164115)    5    5    6    5
 (0.08576437950617861,2.396676213461929e-17)    5    5    6    6
 (-2.479506055511985e-06,-0.0005026536648164266)    5    6    5    5
 (0.0812012479416412,-0.0008011382031676694)    5    6    5    6
 (0.08123020396658179,-4.625929269271485e-18)    5    6    6    5
 (-2.205619147763645e-06,-0.0004471136401590119)    5    6    6    6
 (-2.479506055511985e-06,0.0005026536648163611)    6    5    5    5
 (0.08123020396658179,-1.793451093653105e-18)    6    5    5    6
 (0.08120124794164121,0.0008011382031676628)    6    5    6    5
 (-2.205619147763645e-06,0.0004471136401589292)    6    5    6    6
 (0.08576437950617991,2.480326550920499e-17)    6    6    5    5
 (-2.20561914566116e-06,-0.0004471136401589472)    6    6    5    6
 (-2.205619145644969e-06,0.0004471136401589774)    6    6    6    5
 (0.09024674161245194,3.494259834920406e-17)    6    6    6    6
 (-0.2361118143543865,-1.734723475976807e-18)    1    1  0  0
 (-1.11950834607284e-05,-0.002269444742677334)    2    1  0  0
 (-0.1549125174368408,-3.469446951953614e-18)    2    2  0  0
 (-0.2430063109624478,1.232595164407831e-32)    3    3  0  0
 (-0.1450417456795436,-6.162975822039155e-33)    4    4  0  0
 (-0.2361118143543864,1.734723475976807e-18)    5    5  0  0
 (-1.119508346068078e-05,0.002269444742677323)    6    5  0  0
 (-0.1549125174368408,2.602085213965211e-18)    6    6  0  0
 (-0.8265834074960368,0)  0  0  0  0
 (-0.2436553798322174,0)    1    0    0    0
 (0.09249223076210075,0)    2    0    0    0
 (-0.2559578647514893,0)    3    0    0    0
 (0.1096957006321202,0)    4    0    0    0
 (-0.2436553798322181,0)    5    0    0    0
 (0.09249223076210017,0)    6    0    0    0
