 &FCI NORB=   6,NELEC= 6,MS2=0,
  ORBSYM=2,2,0,0,1,1
  NPROP=   3    1    1
  PROPBITLEN=   8
  ISYM=1,
 &END
 (0.08275895953894734,1.465071500639822e-17)    1    1    1    1
 (-3.371975534583367e-06,0.0005267031445051394)    1    1    1    2
 (-3.371975534578742e-06,-0.0005267031445051089)    1    1    2    1
 (0.0857635884268393,2.366595854446556e-17)    1    1    2    2
 (-3.371975534604184e-06,0.0005267031445050827)    1    2    1    1
 (0.08119933447102091,0.001039736169075694)    1    2    1    2
 (0.08122941288724117,-3.366673621020092e-18)    1    2    2    1
 (-3.088156049185775e-06,0.0004823605519339899)    1    2    2    2
 (-3.371975534604184e-06,-0.0005267031445051462)    2    1    1    1
 (0.08122941288724118,-4.223870963641444e-18)    2    1    1    2
 (0.0811993344710209,-0.001039736169075702)    2    1    2    1
 (-3.088156049185775e-06,-0.0004823605519340735)    2    1    2    2
 (0.08576358842683934,2.387378547858571e-17)    2    2    1    1
 (-3.088156049523468e-06,0.0004823605519340466)    2    2    1    2
 (-3.088156049523468e-06,-0.0004823605519340172)    2    2    2    1
 (0.09023201953722883,3.45744435731748e-17)    2    2    2    2
 (0.08186882672938636,1.442848517280374e-17)    1    1    3    3
 (0.08691694141975881,2.433654799214425e-17)    1    1    4    4
 (-3.266396902172899e-06,0.0005102114624912486)    1    2    3    3
 (-0.08135185291379635,-0.0005208232160243845)    1    2    3    4
 (-0.08135185291379635,-0.0005208232160243812)    1    2    4    3
 (-3.211962137967395e-06,0.0005016993377192945)    1    2    4    4
 (-3.266396902179847e-06,-0.0005102114624912213)    2    1    3    3
 (-0.08135185291379637,0.000520823216024388)    2    1    3    4
 (-0.08135185291379637,0.0005208232160243912)    2    1    4    3
 (-3.211962137981277e-06,-0.0005016993377192629)    2    1    4    4
 (0.08489761993057643,2.348673281230888e-17)    2    2    3    3
 (0.09138587814448645,3.501839604398062e-17)    2    2    4    4
 (0.08275895953894734,1.465071500639824e-17)    1    1    5    5
 (-3.371975534609677e-06,-0.0005267031445051457)    1    1    5    6
 (-3.371975534609677e-06,0.0005267031445050823)    1    1    6    5
 (0.08576358842683934,2.387378547858569e-17)    1    1    6    6
 (-3.371975534622399e-06,0.0005267031445051391)    1    2    5    5
 (0.08122941288724117,-8.673617379884035e-19)    1    2    5    6
 (0.0811993344710209,0.001039736169075691)    1    2    6    5
 (-3.088156049477209e-06,0.000482360551934047)    1    2    6    6
 (-3.37197553462847e-06,-0.0005267031445051085)    2    1    5    5
 (0.0811993344710209,-0.001039736169075699)    2    1    5    6
 (0.08122941288724117,-6.740123505618219e-18)    2    1    6    5
 (-3.088156049477787e-06,-0.0004823605519340174)    2    1    6    6
 (0.08576358842683932,2.366595854446559e-17)    2    2    5    5
 (-3.088156049178547e-06,-0.0004823605519340723)    2    2    5    6
 (-3.088156049178547e-06,0.0004823605519339886)    2    2    6    5
 (0.09023201953722884,3.457444357317476e-17)    2    2    6    6
 (0.1642415730962854,0.01352459601505456)    1    3    1    5
 (0.002740965872878216,-0.03611112912458081)    1    3    1    6
 (0.002740965872878119,-0.03611112912458081)    1    3    2    5
 (0.1660921352346139,0.01153804987121997)    1    3    2    6
 (0.001420877286735141,-0.01725501654708607)    1    4    1    5
 (-0.1008120662452946,-0.007652001911191972)    1    4    1    6
 (-0.1008120662452946,-0.007652001911191961)    1    4    2    5
 (0.001159170033474437,-0.01668644373822345)    1    4    2    6
 (-0.001283501636476845,0.01690962148411863)    2    3    1    5
 (0.1002996619382167,0.00696759360576638)    2    3    1    6
 (0.1002996619382167,0.006967593605766366)    2    3    2    5
 (-0.001034856560399773,0.01641648939791424)    2    3    2    6
 (-0.1667362475440805,-0.01265588664461078)    2    4    1    5
 (-0.002551584849196061,0.03673048633435461)    2    4    1    6
 (-0.002551584849195885,0.03673048633435462)    2    4    2    5
 (-0.1699842813852259,-0.0107154055415295)    2    4    2    6
 (0.1666480809325349,-1.757853122323164e-16)    1    3    3    1
 (0.0001521849665186911,-0.02377107177035508)    1    3    3    2
 (-4.269113534904889e-11,0.02413540930010938)    1    3    4    1
 (-0.1690841529684474,-0.001082494752349716)    1    3    4    2
 (-4.268937518296193e-11,-0.02413540930010939)    1    4    3    1
 (-0.09938019931255089,-0.0006362426065355288)    1    4    3    2
 (0.09993765443151892,6.129356281784718e-17)    1    4    4    1
 (-0.0001569425731042887,0.02451420338852076)    1    4    4    2
 (0.0001521849665171761,0.02377107177035481)    2    3    3    1
 (0.09886571227659322,8.847089727481716e-17)    2    3    3    2
 (-0.09938019931255038,0.0006362426065354206)    2    3    4    1
 (4.130351153689796e-11,-0.02416049332638103)    2    3    4    2
 (-0.1690841529684424,0.001082494752349719)    2    4    3    1
 (4.130307669954665e-11,0.02416049332638114)    2    4    3    2
 (-0.0001569425731059494,-0.02451420338852095)    2    4    4    1
 (0.1729848332436395,-2.301399811462564e-16)    2    4    4    2
 (0.1666480809325349,2.312964634635742e-16)    1    3    5    3
 (-4.268934742738632e-11,0.02413540930010943)    1    3    5    4
 (0.0001521849665172548,-0.02377107177035485)    1    3    6    3
 (-0.1690841529684424,-0.001082494752349769)    1    3    6    4
 (-4.269109140272083e-11,-0.02413540930010937)    1    4    5    3
 (0.09993765443151889,-2.023844055306275e-17)    1    4    5    4
 (-0.09938019931255035,-0.0006362426065354478)    1    4    6    3
 (-0.0001569425731059032,0.02451420338852092)    1    4    6    4
 (0.0001521849665186634,0.02377107177035506)    2    3    5    3
 (-0.09938019931255089,0.0006362426065355004)    2    3    5    4
 (0.09886571227659324,-7.343662714968483e-17)    2    3    6    3
 (4.130304894397104e-11,-0.02416049332638112)    2    3    6    4
 (-0.1690841529684475,0.001082494752349659)    2    4    5    3
 (-0.0001569425731043211,-0.0245142033885208)    2    4    5    4
 (4.130346527760527e-11,0.02416049332638109)    2    4    6    3
 (0.1729848332436395,2.810252031082427e-16)    2    4    6    4
 (0.1642415730962854,0.01352459601505456)    1    5    1    3
 (0.001420877286735141,-0.01725501654708607)    1    5    1    4
 (-0.001283501636476845,0.01690962148411863)    1    5    2    3
 (-0.1667362475440805,-0.01265588664461078)    1    5    2    4
 (0.002740965872878216,-0.03611112912458081)    1    6    1    3
 (-0.1008120662452946,-0.007652001911191972)    1    6    1    4
 (0.1002996619382167,0.00696759360576638)    1    6    2    3
 (-0.002551584849196061,0.03673048633435461)    1    6    2    4
 (0.002740965872878119,-0.03611112912458081)    2    5    1    3
 (-0.1008120662452946,-0.007652001911191961)    2    5    1    4
 (0.1002996619382167,0.006967593605766366)    2    5    2    3
 (-0.002551584849195885,0.03673048633435462)    2    5    2    4
 (0.1660921352346139,0.01153804987121997)    2    6    1    3
 (0.001159170033474437,-0.01668644373822345)    2    6    1    4
 (-0.001034856560399773,0.01641648939791424)    2    6    2    3
 (-0.1699842813852259,-0.0107154055415295)    2    6    2    4
 (0.1642415730962911,0.01352459601505497)    1    5    3    5
 (-0.001283501636479771,0.01690962148411855)    1    5    3    6
 (0.001420877286734724,-0.01725501654708567)    1    5    4    5
 (-0.1667362475440782,-0.01265588664461063)    1    5    4    6
 (0.00274096587287922,-0.03611112912458037)    1    6    3    5
 (0.1002996619382163,0.006967593605767186)    1    6    3    6
 (-0.1008120662452977,-0.007652001911192224)    1    6    4    5
 (-0.002551584849196964,0.03673048633435577)    1    6    4    6
 (0.002740965872879125,-0.03611112912458038)    2    5    3    5
 (0.1002996619382163,0.006967593605767174)    2    5    3    6
 (-0.1008120662452977,-0.007652001911192212)    2    5    4    5
 (-0.002551584849196866,0.03673048633435577)    2    5    4    6
 (0.1660921352346177,0.01153804987122043)    2    6    3    5
 (-0.001034856560402925,0.01641648939791467)    2    6    3    6
 (0.001159170033474595,-0.01668644373822351)    2    6    4    5
 (-0.1699842813852253,-0.01071540554153011)    2    6    4    6
 (0.163437654670497,-3.758567531283082e-16)    1    5    5    1
 (-0.0001874765596078474,0.02928358128562302)    1    5    5    2
 (-0.0001874765596077456,0.02928358128562303)    1    5    6    1
 (0.1651121813559024,0.00211421812861626)    1    5    6    2
 (-0.0001874765596078058,-0.02928358128562296)    1    6    5    1
 (0.1031559566237453,1.630640067418199e-16)    1    6    5    2
 (0.1031559566237453,1.410908427127803e-16)    1    6    6    1
 (0.000185036774497771,-0.02890249013045635)    1    6    6    2
 (-0.0001874765596078983,-0.02928358128562295)    2    5    5    1
 (0.1031559566237453,1.445602896647339e-16)    2    5    5    2
 (0.1031559566237453,1.202741610010586e-16)    2    5    6    1
 (0.00018503677449766,-0.02890249013045636)    2    5    6    2
 (0.1651121813559028,-0.002114218128616932)    2    6    5    1
 (0.0001850367744975674,0.0289024901304571)    2    6    5    2
 (0.0001850367744976415,0.02890249013045711)    2    6    6    1
 (0.168299303061007,1.272130549049658e-16)    2    6    6    2
 (0.1666480809325349,-1.757853122323164e-16)    3    1    1    3
 (-4.268937518296193e-11,-0.02413540930010939)    3    1    1    4
 (0.0001521849665171761,0.02377107177035481)    3    1    2    3
 (-0.1690841529684424,0.001082494752349719)    3    1    2    4
 (0.0001521849665186911,-0.02377107177035508)    3    2    1    3
 (-0.09938019931255089,-0.0006362426065355288)    3    2    1    4
 (0.09886571227659322,8.847089727481716e-17)    3    2    2    3
 (4.130307669954665e-11,0.02416049332638114)    3    2    2    4
 (-4.269113534904889e-11,0.02413540930010938)    4    1    1    3
 (0.09993765443151892,6.129356281784718e-17)    4    1    1    4
 (-0.09938019931255038,0.0006362426065354206)    4    1    2    3
 (-0.0001569425731059494,-0.02451420338852095)    4    1    2    4
 (-0.1690841529684474,-0.001082494752349716)    4    2    1    3
 (-0.0001569425731042887,0.02451420338852076)    4    2    1    4
 (4.130351153689796e-11,-0.02416049332638103)    4    2    2    3
 (0.1729848332436395,-2.301399811462564e-16)    4    2    2    4
 (0.1666480809325349,-2.312964634635742e-16)    3    1    3    5
 (0.0001521849665172548,0.02377107177035485)    3    1    3    6
 (-4.268934742738632e-11,-0.02413540930010943)    3    1    4    5
 (-0.1690841529684424,0.001082494752349769)    3    1    4    6
 (0.0001521849665186634,-0.02377107177035506)    3    2    3    5
 (0.09886571227659324,7.343662714968483e-17)    3    2    3    6
 (-0.09938019931255089,-0.0006362426065355004)    3    2    4    5
 (4.130304894397104e-11,0.02416049332638112)    3    2    4    6
 (-4.269109140272083e-11,0.02413540930010937)    4    1    3    5
 (-0.09938019931255035,0.0006362426065354478)    4    1    3    6
 (0.09993765443151889,2.023844055306275e-17)    4    1    4    5
 (-0.0001569425731059032,-0.02451420338852092)    4    1    4    6
 (-0.1690841529684475,-0.001082494752349659)    4    2    3    5
 (4.130346527760527e-11,-0.02416049332638109)    4    2    3    6
 (-0.0001569425731043211,0.0245142033885208)    4    2    4    5
 (0.1729848332436395,-2.810252031082427e-16)    4    2    4    6
 (0.1642415730962854,-0.01352459601505456)    3    1    5    1
 (0.002740965872878119,0.03611112912458081)    3    1    5    2
 (0.002740965872878216,0.03611112912458081)    3    1    6    1
 (0.1660921352346139,-0.01153804987121997)    3    1    6    2
 (-0.001283501636476845,-0.01690962148411863)    3    2    5    1
 (0.1002996619382167,-0.006967593605766366)    3    2    5    2
 (0.1002996619382167,-0.00696759360576638)    3    2    6    1
 (-0.001034856560399773,-0.01641648939791424)    3    2    6    2
 (0.001420877286735141,0.01725501654708607)    4    1    5    1
 (-0.1008120662452946,0.007652001911191961)    4    1    5    2
 (-0.1008120662452946,0.007652001911191972)    4    1    6    1
 (0.001159170033474437,0.01668644373822345)    4    1    6    2
 (-0.1667362475440805,0.01265588664461078)    4    2    5    1
 (-0.002551584849195885,-0.03673048633435462)    4    2    5    2
 (-0.002551584849196061,-0.03673048633435461)    4    2    6    1
 (-0.1699842813852259,0.0107154055415295)    4    2    6    2
 (0.08186882672938636,1.442848517280374e-17)    3    3    1    1
 (-3.266396902172899e-06,0.0005102114624912486)    3    3    1    2
 (-3.266396902179847e-06,-0.0005102114624912213)    3    3    2    1
 (0.08489761993057643,2.348673281230888e-17)    3    3    2    2
 (-0.08135185291379635,-0.0005208232160243845)    3    4    1    2
 (-0.08135185291379637,0.000520823216024388)    3    4    2    1
 (-0.08135185291379635,-0.0005208232160243812)    4    3    1    2
 (-0.08135185291379637,0.0005208232160243912)    4    3    2    1
 (0.08691694141975881,2.433654799214425e-17)    4    4    1    1
 (-3.211962137967395e-06,0.0005016993377192945)    4    4    1    2
 (-3.211962137981277e-06,-0.0005016993377192629)    4    4    2    1
 (0.09138587814448645,3.501839604398062e-17)    4    4    2    2
 (0.08100304986196925,1.434281133811026e-17)    3    3    3    3
 (0.08602156026990949,2.382230364618455e-17)    3    3    4    4
 (0.08148956550829194,5.220430996603432e-18)    3    4    3    4
 (0.08148956550829194,-6.236707114043988e-19)    3    4    4    3
 (0.08148956550829194,-5.032404847013116e-18)    4    3    3    4
 (0.08148956550829194,-1.087650655502041e-17)    4    3    4    3
 (0.08602156026990804,2.400731978549556e-17)    4    4    3    3
 (0.09257586830486694,3.577705756674029e-17)    4    4    4    4
 (0.08186882672938667,1.455721452200576e-17)    3    3    5    5
 (-3.266396902262825e-06,-0.0005102114624912641)    3    3    5    6
 (-3.266396902262825e-06,0.000510211462491203)    3    3    6    5
 (0.08489761993057748,2.355874656093445e-17)    3    3    6    6
 (-0.08135185291379582,0.0005208232160243975)    3    4    5    6
 (-0.08135185291379582,-0.0005208232160243951)    3    4    6    5
 (-0.08135185291379582,0.0005208232160244019)    4    3    5    6
 (-0.08135185291379582,-0.0005208232160243908)    4    3    6    5
 (0.08691694141975966,2.401658534005428e-17)    4    4    5    5
 (-3.211962140495239e-06,-0.0005016993377193089)    4    4    5    6
 (-3.211962140495239e-06,0.0005016993377192232)    4    4    6    5
 (0.09138587814448826,3.530670596994207e-17)    4    4    6    6
 (0.1642415730962911,0.01352459601505497)    3    5    1    5
 (0.00274096587287922,-0.03611112912458037)    3    5    1    6
 (0.002740965872879125,-0.03611112912458038)    3    5    2    5
 (0.1660921352346177,0.01153804987122043)    3    5    2    6
 (-0.001283501636479771,0.01690962148411855)    3    6    1    5
 (0.1002996619382163,0.006967593605767186)    3    6    1    6
 (0.1002996619382163,0.006967593605767174)    3    6    2    5
 (-0.001034856560402925,0.01641648939791467)    3    6    2    6
 (0.001420877286734724,-0.01725501654708567)    4    5    1    5
 (-0.1008120662452977,-0.007652001911192224)    4    5    1    6
 (-0.1008120662452977,-0.007652001911192212)    4    5    2    5
 (0.001159170033474595,-0.01668644373822351)    4    5    2    6
 (-0.1667362475440782,-0.01265588664461063)    4    6    1    5
 (-0.002551584849196964,0.03673048633435577)    4    6    1    6
 (-0.002551584849196866,0.03673048633435577)    4    6    2    5
 (-0.1699842813852253,-0.01071540554153011)    4    6    2    6
 (0.1666480809325349,-2.312964634635742e-16)    3    5    3    1
 (0.0001521849665186634,-0.02377107177035506)    3    5    3    2
 (-4.269109140272083e-11,0.02413540930010937)    3    5    4    1
 (-0.1690841529684475,-0.001082494752349659)    3    5    4    2
 (0.0001521849665172548,0.02377107177035485)    3    6    3    1
 (0.09886571227659324,7.343662714968483e-17)    3    6    3    2
 (-0.09938019931255035,0.0006362426065354478)    3    6    4    1
 (4.130346527760527e-11,-0.02416049332638109)    3    6    4    2
 (-4.268934742738632e-11,-0.02413540930010943)    4    5    3    1
 (-0.09938019931255089,-0.0006362426065355004)    4    5    3    2
 (0.09993765443151889,2.023844055306275e-17)    4    5    4    1
 (-0.0001569425731043211,0.0245142033885208)    4    5    4    2
 (-0.1690841529684424,0.001082494752349769)    4    6    3    1
 (4.130304894397104e-11,0.02416049332638112)    4    6    3    2
 (-0.0001569425731059032,-0.02451420338852092)    4    6    4    1
 (0.1729848332436395,-2.810252031082427e-16)    4    6    4    2
 (0.1666480809325349,-1.838806884535416e-16)    3    5    5    3
 (-4.269103126564033e-11,0.02413540930010941)    3    5    5    4
 (0.0001521849665187096,-0.02377107177035512)    3    5    6    3
 (-0.1690841529684474,-0.001082494752349708)    3    5    6    4
 (0.0001521849665172224,0.02377107177035482)    3    6    5    3
 (-0.09938019931255038,0.0006362426065354044)    3    6    5    4
 (0.09886571227659322,1.07552855510562e-16)    3    6    6    3
 (4.130342364424185e-11,-0.02416049332638107)    3    6    6    4
 (-4.268931504588143e-11,-0.02413540930010941)    4    5    5    3
 (0.09993765443151889,5.84023570245525e-17)    4    5    5    4
 (-0.09938019931255093,-0.0006362426065355212)    4    5    6    3
 (-0.0001569425731043026,0.02451420338852077)    4    5    6    4
 (-0.1690841529684424,0.001082494752349716)    4    6    5    3
 (-0.000156942573105968,-0.02451420338852098)    4    6    5    4
 (4.130300268467835e-11,0.02416049332638118)    4    6    6    3
 (0.1729848332436395,-2.344767898361984e-16)    4    6    6    4
 (0.163437654670497,-3.758567531283082e-16)    5    1    1    5
 (-0.0001874765596078058,-0.02928358128562296)    5    1    1    6
 (-0.0001874765596078983,-0.02928358128562295)    5    1    2    5
 (0.1651121813559028,-0.002114218128616932)    5    1    2    6
 (-0.0001874765596078474,0.02928358128562302)    5    2    1    5
 (0.1031559566237453,1.630640067418199e-16)    5    2    1    6
 (0.1031559566237453,1.445602896647339e-16)    5    2    2    5
 (0.0001850367744975674,0.0289024901304571)    5    2    2    6
 (-0.0001874765596077456,0.02928358128562303)    6    1    1    5
 (0.1031559566237453,1.410908427127803e-16)    6    1    1    6
 (0.1031559566237453,1.202741610010586e-16)    6    1    2    5
 (0.0001850367744976415,0.02890249013045711)    6    1    2    6
 (0.1651121813559024,0.00211421812861626)    6    2    1    5
 (0.000185036774497771,-0.02890249013045635)    6    2    1    6
 (0.00018503677449766,-0.02890249013045636)    6    2    2    5
 (0.168299303061007,1.272130549049658e-16)    6    2    2    6
 (0.1642415730962854,-0.01352459601505456)    5    1    3    1
 (-0.001283501636476845,-0.01690962148411863)    5    1    3    2
 (0.001420877286735141,0.01725501654708607)    5    1    4    1
 (-0.1667362475440805,0.01265588664461078)    5    1    4    2
 (0.002740965872878119,0.03611112912458081)    5    2    3    1
 (0.1002996619382167,-0.006967593605766366)    5    2    3    2
 (-0.1008120662452946,0.007652001911191961)    5    2    4    1
 (-0.002551584849195885,-0.03673048633435462)    5    2    4    2
 (0.002740965872878216,0.03611112912458081)    6    1    3    1
 (0.1002996619382167,-0.00696759360576638)    6    1    3    2
 (-0.1008120662452946,0.007652001911191972)    6    1    4    1
 (-0.002551584849196061,-0.03673048633435461)    6    1    4    2
 (0.1660921352346139,-0.01153804987121997)    6    2    3    1
 (-0.001034856560399773,-0.01641648939791424)    6    2    3    2
 (0.001159170033474437,0.01668644373822345)    6    2    4    1
 (-0.1699842813852259,0.0107154055415295)    6    2    4    2
 (0.1642415730962911,-0.01352459601505497)    5    1    5    3
 (0.001420877286734724,0.01725501654708567)    5    1    5    4
 (-0.001283501636479771,-0.01690962148411855)    5    1    6    3
 (-0.1667362475440782,0.01265588664461063)    5    1    6    4
 (0.002740965872879125,0.03611112912458038)    5    2    5    3
 (-0.1008120662452977,0.007652001911192212)    5    2    5    4
 (0.1002996619382163,-0.006967593605767174)    5    2    6    3
 (-0.002551584849196866,-0.03673048633435577)    5    2    6    4
 (0.00274096587287922,0.03611112912458037)    6    1    5    3
 (-0.1008120662452977,0.007652001911192224)    6    1    5    4
 (0.1002996619382163,-0.006967593605767186)    6    1    6    3
 (-0.002551584849196964,-0.03673048633435577)    6    1    6    4
 (0.1660921352346177,-0.01153804987122043)    6    2    5    3
 (0.001159170033474595,0.01668644373822351)    6    2    5    4
 (-0.001034856560402925,-0.01641648939791467)    6    2    6    3
 (-0.1699842813852253,0.01071540554153011)    6    2    6    4
 (0.1666480809325349,2.312964634635742e-16)    5    3    1    3
 (-4.269109140272083e-11,-0.02413540930010937)    5    3    1    4
 (0.0001521849665186634,0.02377107177035506)    5    3    2    3
 (-0.1690841529684475,0.001082494752349659)    5    3    2    4
 (-4.268934742738632e-11,0.02413540930010943)    5    4    1    3
 (0.09993765443151889,-2.023844055306275e-17)    5    4    1    4
 (-0.09938019931255089,0.0006362426065355004)    5    4    2    3
 (-0.0001569425731043211,-0.0245142033885208)    5    4    2    4
 (0.0001521849665172548,-0.02377107177035485)    6    3    1    3
 (-0.09938019931255035,-0.0006362426065354478)    6    3    1    4
 (0.09886571227659324,-7.343662714968483e-17)    6    3    2    3
 (4.130346527760527e-11,0.02416049332638109)    6    3    2    4
 (-0.1690841529684424,-0.001082494752349769)    6    4    1    3
 (-0.0001569425731059032,0.02451420338852092)    6    4    1    4
 (4.130304894397104e-11,-0.02416049332638112)    6    4    2    3
 (0.1729848332436395,2.810252031082427e-16)    6    4    2    4
 (0.1666480809325349,-1.838806884535416e-16)    5    3    3    5
 (0.0001521849665172224,0.02377107177035482)    5    3    3    6
 (-4.268931504588143e-11,-0.02413540930010941)    5    3    4    5
 (-0.1690841529684424,0.001082494752349716)    5    3    4    6
 (-4.269103126564033e-11,0.02413540930010941)    5    4    3    5
 (-0.09938019931255038,0.0006362426065354044)    5    4    3    6
 (0.09993765443151889,5.84023570245525e-17)    5    4    4    5
 (-0.000156942573105968,-0.02451420338852098)    5    4    4    6
 (0.0001521849665187096,-0.02377107177035512)    6    3    3    5
 (0.09886571227659322,1.07552855510562e-16)    6    3    3    6
 (-0.09938019931255093,-0.0006362426065355212)    6    3    4    5
 (4.130300268467835e-11,0.02416049332638118)    6    3    4    6
 (-0.1690841529684474,-0.001082494752349708)    6    4    3    5
 (4.130342364424185e-11,-0.02416049332638107)    6    4    3    6
 (-0.0001569425731043026,0.02451420338852077)    6    4    4    5
 (0.1729848332436395,-2.344767898361984e-16)    6    4    4    6
 (0.1642415730962911,-0.01352459601505497)    5    3    5    1
 (0.002740965872879125,0.03611112912458038)    5    3    5    2
 (0.00274096587287922,0.03611112912458037)    5    3    6    1
 (0.1660921352346177,-0.01153804987122043)    5    3    6    2
 (0.001420877286734724,0.01725501654708567)    5    4    5    1
 (-0.1008120662452977,0.007652001911192212)    5    4    5    2
 (-0.1008120662452977,0.007652001911192224)    5    4    6    1
 (0.001159170033474595,0.01668644373822351)    5    4    6    2
 (-0.001283501636479771,-0.01690962148411855)    6    3    5    1
 (0.1002996619382163,-0.006967593605767174)    6    3    5    2
 (0.1002996619382163,-0.006967593605767186)    6    3    6    1
 (-0.001034856560402925,-0.01641648939791467)    6    3    6    2
 (-0.1667362475440782,0.01265588664461063)    6    4    5    1
 (-0.002551584849196866,-0.03673048633435577)    6    4    5    2
 (-0.002551584849196964,-0.03673048633435577)    6    4    6    1
 (-0.1699842813852253,0.01071540554153011)    6    4    6    2
 (0.08275895953894734,1.465071500639824e-17)    5    5    1    1
 (-3.371975534622399e-06,0.0005267031445051391)    5    5    1    2
 (-3.37197553462847e-06,-0.0005267031445051085)    5    5    2    1
 (0.08576358842683932,2.366595854446559e-17)    5    5    2    2
 (-3.371975534609677e-06,-0.0005267031445051457)    5    6    1    1
 (0.08122941288724117,-8.673617379884035e-19)    5    6    1    2
 (0.0811993344710209,-0.001039736169075699)    5    6    2    1
 (-3.088156049178547e-06,-0.0004823605519340723)    5    6    2    2
 (-3.371975534609677e-06,0.0005267031445050823)    6    5    1    1
 (0.0811993344710209,0.001039736169075691)    6    5    1    2
 (0.08122941288724117,-6.740123505618219e-18)    6    5    2    1
 (-3.088156049178547e-06,0.0004823605519339886)    6    5    2    2
 (0.08576358842683934,2.387378547858569e-17)    6    6    1    1
 (-3.088156049477209e-06,0.000482360551934047)    6    6    1    2
 (-3.088156049477787e-06,-0.0004823605519340174)    6    6    2    1
 (0.09023201953722884,3.457444357317476e-17)    6    6    2    2
 (0.08186882672938667,1.455721452200576e-17)    5    5    3    3
 (0.08691694141975966,2.401658534005428e-17)    5    5    4    4
 (-3.266396902262825e-06,-0.0005102114624912641)    5    6    3    3
 (-0.08135185291379582,0.0005208232160243975)    5    6    3    4
 (-0.08135185291379582,0.0005208232160244019)    5    6    4    3
 (-3.211962140495239e-06,-0.0005016993377193089)    5    6    4    4
 (-3.266396902262825e-06,0.000510211462491203)    6    5    3    3
 (-0.08135185291379582,-0.0005208232160243951)    6    5    3    4
 (-0.08135185291379582,-0.0005208232160243908)    6    5    4    3
 (-3.211962140495239e-06,0.0005016993377192232)    6    5    4    4
 (0.08489761993057748,2.355874656093445e-17)    6    6    3    3
 (0.09138587814448826,3.530670596994207e-17)    6    6    4    4
 (0.08275895953894732,1.48430373518209e-17)    5    5    5    5
 (-3.371975534632229e-06,-0.0005267031445051079)    5    5    5    6
 (-3.37197553463859e-06,0.0005267031445051382)    5    5    6    5
 (0.0857635884268393,2.333621872339364e-17)    5    5    6    6
 (-3.371975534669236e-06,-0.0005267031445051453)    5    6    5    5
 (0.08119933447102091,-0.001039736169075696)    5    6    5    6
 (0.08122941288724118,-2.294894598427651e-18)    5    6    6    5
 (-3.088156049118988e-06,-0.0004823605519340719)    5    6    6    6
 (-3.371975534669236e-06,0.0005267031445050824)    6    5    5    5
 (0.08122941288724118,-3.650147314034531e-18)    6    5    5    6
 (0.08119933447102091,0.00103973616907569)    6    5    6    5
 (-3.088156049118988e-06,0.0004823605519339893)    6    5    6    6
 (0.08576358842683936,2.402981375528196e-17)    6    6    5    5
 (-3.088156049477787e-06,-0.0004823605519340162)    6    6    5    6
 (-3.088156049477209e-06,0.0004823605519340461)    6    6    6    5
 (0.09023201953722887,3.428399071865971e-17)    6    6    6    6
 (-0.23607077824581,-2.602085213965211e-18)    1    1  0  0
 (-1.864394552896025e-05,-0.002912142918143187)    2    1  0  0
 (-0.1549535535454173,-3.035766082959412e-18)    2    2  0  0
 (-0.2430063109624478,0)    3    3  0  0
 (-0.1450417456795436,-1.232595164407831e-32)    4    4  0  0
 (-0.2360707782458101,3.469446951953614e-18)    5    5  0  0
 (-1.864394552895668e-05,0.002912142918143167)    6    5  0  0
 (-0.1549535535454174,3.035766082959412e-18)    6    6  0  0
 (-0.8265834074960368,0)  0  0  0  0
 (-0.2300097034243972,0)    1    0    0    0
 (0.07464550623814624,0)    2    0    0    0
 (-0.2436904421601384,0)    3    0    0    0
 (0.09330341710197569,0)    4    0    0    0
 (-0.2300097034243967,0)    5    0    0    0
 (0.07464550623814656,0)    6    0    0    0
