 &FCI NORB=   6,NELEC= 6,MS2=0,
  ORBSYM=2,2,0,0,1,1
  NPROP=   3    1    1
  PROPBITLEN=   8
  ISYM=1,
 &END
 (0.08275896949354794,1.582192864048872e-17)    1    1    1    1
 (-3.372540321895193e-06,0.0005267174480819137)    1    1    1    2
 (-3.372540321895193e-06,-0.0005267174480818827)    1    1    2    1
 (0.08576358800784434,2.448047910093216e-17)    1    1    2    2
 (-3.372540320447277e-06,0.0005267174480818666)    1    2    1    1
 (0.08119933306810896,0.001039878445975889)    1    2    1    2
 (0.08122941246824399,-1.818297393439231e-18)    1    2    2    1
 (-3.08870187347432e-06,0.000482381550618362)    1    2    2    2
 (-3.372540320447277e-06,-0.0005267174480819297)    2    1    1    1
 (0.08122941246824399,-3.501069515317774e-18)    2    1    1    2
 (0.08119933306810895,-0.001039878445975894)    2    1    2    1
 (-3.08870187347432e-06,-0.0004823815506184453)    2    1    2    2
 (0.08576358800784226,2.496439728497313e-17)    2    2    1    1
 (-3.088701874357872e-06,0.0004823815506184172)    2    2    1    2
 (-3.088701874357872e-06,-0.0004823815506183863)    2    2    2    1
 (0.09023201042062064,3.551211942367057e-17)    2    2    2    2
 (0.08186883155084332,1.558967913191971e-17)    1    1    3    3
 (0.08691694616081215,2.543776159204654e-17)    1    1    4    4
 (-3.266944641485437e-06,0.0005102257696886349)    1    2    3    3
 (-0.08135185245749088,-0.0005208944854055189)    1    2    3    4
 (-0.08135185245749088,-0.0005208944854055155)    1    2    4    3
 (-3.212528253021887e-06,0.0005017204493249539)    1    2    4    4
 (-3.26694464150105e-06,-0.0005102257696886043)    2    1    3    3
 (-0.08135185245749088,0.0005208944854055209)    2    1    3    4
 (-0.08135185245749088,0.0005208944854055242)    2    1    4    3
 (-3.212528253018996e-06,-0.0005017204493249219)    2    1    4    4
 (0.08489761510911892,2.429255443614122e-17)    2    2    3    3
 (0.09138587340343676,3.596935774277687e-17)    2    2    4    4
 (0.08275896949354794,1.582192864048857e-17)    1    1    5    5
 (-3.372540320442652e-06,-0.0005267174480819284)    1    1    5    6
 (-3.372540320442652e-06,0.0005267174480818653)    1    1    6    5
 (0.08576358800784224,2.496439728497326e-17)    1    1    6    6
 (-3.372540321562127e-06,0.0005267174480819166)    1    2    5    5
 (0.08122941246824399,3.449118161219511e-18)    1    2    5    6
 (0.08119933306810895,0.001039878445975882)    1    2    6    5
 (-3.088701874695565e-06,0.0004823815506184147)    1    2    6    6
 (-3.372540321562127e-06,-0.0005267174480818854)    2    1    5    5
 (0.08119933306810895,-0.001039878445975886)    2    1    5    6
 (0.08122941246824399,-8.810272028707728e-18)    2    1    6    5
 (-3.088701874695565e-06,-0.0004823815506183836)    2    1    6    6
 (0.08576358800784431,2.448047910093197e-17)    2    2    5    5
 (-3.088701873465068e-06,-0.0004823815506184442)    2    2    5    6
 (-3.088701873465068e-06,0.0004823815506183608)    2    2    6    5
 (0.09023201042062069,3.551211942367079e-17)    2    2    6    6
 (0.164242009026043,0.01352249539096489)    1    3    1    5
 (0.002740313244737929,-0.03610913247241903)    1    3    1    6
 (0.002740313244738781,-0.03610913247241896)    1    3    2    5
 (0.1660925683632983,0.01153563113181753)    1    3    2    6
 (0.001420797577194456,-0.0172567744523371)    1    4    1    5
 (-0.1008121848882911,-0.007650612014410647)    1    4    1    6
 (-0.1008121848882911,-0.007650612014410739)    1    4    2    5
 (0.001159047134341134,-0.01668821662533006)    1    4    2    6
 (-0.001283399163767257,0.0169113629439074)    2    3    1    5
 (0.1002997773831791,0.006966122834134282)    2    3    1    6
 (0.1002997773831791,0.006966122834134352)    2    3    2    5
 (-0.001034710518667762,0.01641823876813864)    2    3    2    6
 (-0.1667366874844302,-0.01265360635221754)    2    4    1    5
 (-0.002550902323593576,0.03672845626474285)    2    4    1    6
 (-0.002550902323594499,0.03672845626474276)    2    4    2    5
 (-0.1699847163267839,-0.01071277936673167)    2    4    2    6
 (0.1666478562994305,-1.71159382963045e-16)    1    3    3    1
 (0.0001522078321436378,-0.02377139188740806)    1    3    3    2
 (-2.727169416220458e-11,0.02413573864282795)    1    3    4    1
 (-0.1690839238348598,-0.001082641413642789)    1    3    4    2
 (-2.727175892521435e-11,-0.02413573864282796)    1    4    3    1
 (-0.09938042694034571,-0.0006363311317415544)    1    4    3    2
 (0.09993788608717864,-4.568105153405592e-16)    1    4    4    1
 (-0.0001569662494057914,0.02451454837601998)    1    4    4    2
 (0.0001522078321448035,0.02377139188740789)    2    3    3    1
 (0.09886593690969787,-3.469446951953614e-17)    2    3    3    2
 (-0.09938042694034534,0.0006363311317416354)    2    3    4    1
 (2.628737042857191e-11,-0.02416082266909991)    2    3    4    2
 (-0.1690839238348578,0.001082641413642765)    2    4    3    1
 (2.628637122784975e-11,0.02416082266910033)    2    4    3    2
 (-0.0001569662494071329,-0.02451454837602016)    2    4    4    1
 (0.1729846015879827,3.301757015942523e-16)    2    4    4    2
 (0.1666478562994304,1.139135082558103e-16)    1    3    5    3
 (-2.72721567551315e-11,0.02413573864282799)    1    3    5    4
 (0.0001522078321444797,-0.0237713918874079)    1    3    6    3
 (-0.1690839238348578,-0.001082641413642832)    1    3    6    4
 (-2.727191389384487e-11,-0.02413573864282795)    1    4    5    3
 (0.0999378860871786,5.377642775528102e-16)    1    4    5    4
 (-0.09938042694034528,-0.0006363311317415804)    1    4    6    3
 (-0.0001569662494073804,0.02451454837602015)    1    4    6    4
 (0.0001522078321438761,0.02377139188740807)    2    3    5    3
 (-0.09938042694034577,0.0006363311317414827)    2    3    5    4
 (0.09886593690969787,-1.734723475976807e-17)    2    3    6    3
 (2.628662796692419e-11,-0.02416082266910033)    2    3    6    4
 (-0.1690839238348598,0.001082641413642846)    2    4    5    3
 (-0.0001569662494053612,-0.02451454837601999)    2    4    5    4
 (2.62878237696403e-11,0.02416082266909993)    2    4    6    3
 (0.1729846015879826,-2.315855840429037e-16)    2    4    6    4
 (0.164242009026043,0.01352249539096489)    1    5    1    3
 (0.001420797577194456,-0.0172567744523371)    1    5    1    4
 (-0.001283399163767257,0.0169113629439074)    1    5    2    3
 (-0.1667366874844302,-0.01265360635221754)    1    5    2    4
 (0.002740313244737929,-0.03610913247241903)    1    6    1    3
 (-0.1008121848882911,-0.007650612014410647)    1    6    1    4
 (0.1002997773831791,0.006966122834134282)    1    6    2    3
 (-0.002550902323593576,0.03672845626474285)    1    6    2    4
 (0.002740313244738781,-0.03610913247241896)    2    5    1    3
 (-0.1008121848882911,-0.007650612014410739)    2    5    1    4
 (0.1002997773831791,0.006966122834134352)    2    5    2    3
 (-0.002550902323594499,0.03672845626474276)    2    5    2    4
 (0.1660925683632983,0.01153563113181753)    2    6    1    3
 (0.001159047134341134,-0.01668821662533006)    2    6    1    4
 (-0.001034710518667762,0.01641823876813864)    2    6    2    3
 (-0.1699847163267839,-0.01071277936673167)    2    6    2    4
 (0.1642420090260405,0.01352249539096516)    1    5    3    5
 (-0.001283399163765136,0.01691136294390705)    1    5    3    6
 (0.001420797577195399,-0.01725677445233694)    1    5    4    5
 (-0.1667366874844317,-0.01265360635221824)    1    5    4    6
 (0.002740313244738335,-0.03610913247241869)    1    6    3    5
 (0.1002997773831785,0.00696612283413473)    1    6    3    6
 (-0.1008121848882867,-0.007650612014411089)    1    6    4    5
 (-0.002550902323594302,0.03672845626474122)    1    6    4    6
 (0.002740313244739163,-0.03610913247241863)    2    5    3    5
 (0.1002997773831785,0.006966122834134805)    2    5    3    6
 (-0.1008121848882867,-0.007650612014411178)    2    5    4    5
 (-0.002550902323595223,0.03672845626474112)    2    5    4    6
 (0.1660925683632985,0.01153563113181744)    2    6    3    5
 (-0.001034710518671262,0.01641823876813858)    2    6    3    6
 (0.00115904713433924,-0.01668821662533027)    2    6    4    5
 (-0.1699847163267823,-0.0107127793667306)    2    6    4    6
 (0.1634382081123193,-3.080941173479641e-17)    1    5    5    1
 (-0.0001874985302557394,0.0292830035145599)    1    5    5    2
 (-0.0001874985302565906,0.02928300351455991)    1    5    6    1
 (0.1651127274465623,0.002114514475309266)    1    5    6    2
 (-0.0001874985302573841,-0.02928300351455956)    1    6    5    1
 (0.1031554067832642,-6.740123505618219e-18)    1    6    5    2
 (0.1031554067832642,1.53441712461011e-16)    1    6    6    1
 (0.000185058263863708,-0.02890188939171805)    1    6    6    2
 (-0.0001874985302565595,-0.02928300351455957)    2    5    5    1
 (0.1031554067832642,1.167053288499605e-16)    2    5    5    2
 (0.1031554067832642,2.840880742455143e-16)    2    5    6    1
 (0.0001850582638646071,-0.02890188939171803)    2    5    6    2
 (0.1651127274465616,-0.002114514475309956)    2    6    5    1
 (0.0001850582638653425,0.02890188939171812)    2    6    5    2
 (0.000185058263864506,0.02890188939171812)    2    6    6    1
 (0.1682998493001494,-3.070099151754787e-16)    2    6    6    2
 (0.1666478562994305,-1.71159382963045e-16)    3    1    1    3
 (-2.727175892521435e-11,-0.02413573864282796)    3    1    1    4
 (0.0001522078321448035,0.02377139188740789)    3    1    2    3
 (-0.1690839238348578,0.001082641413642765)    3    1    2    4
 (0.0001522078321436378,-0.02377139188740806)    3    2    1    3
 (-0.09938042694034571,-0.0006363311317415544)    3    2    1    4
 (0.09886593690969787,-3.469446951953614e-17)    3    2    2    3
 (2.628637122784975e-11,0.02416082266910033)    3    2    2    4
 (-2.727169416220458e-11,0.02413573864282795)    4    1    1    3
 (0.09993788608717864,-4.568105153405592e-16)    4    1    1    4
 (-0.09938042694034534,0.0006363311317416354)    4    1    2    3
 (-0.0001569662494071329,-0.02451454837602016)    4    1    2    4
 (-0.1690839238348598,-0.001082641413642789)    4    2    1    3
 (-0.0001569662494057914,0.02451454837601998)    4    2    1    4
 (2.628737042857191e-11,-0.02416082266909991)    4    2    2    3
 (0.1729846015879827,3.301757015942523e-16)    4    2    2    4
 (0.1666478562994304,-1.139135082558103e-16)    3    1    3    5
 (0.0001522078321444797,0.0237713918874079)    3    1    3    6
 (-2.72721567551315e-11,-0.02413573864282799)    3    1    4    5
 (-0.1690839238348578,0.001082641413642832)    3    1    4    6
 (0.0001522078321438761,-0.02377139188740807)    3    2    3    5
 (0.09886593690969787,1.734723475976807e-17)    3    2    3    6
 (-0.09938042694034577,-0.0006363311317414827)    3    2    4    5
 (2.628662796692419e-11,0.02416082266910033)    3    2    4    6
 (-2.727191389384487e-11,0.02413573864282795)    4    1    3    5
 (-0.09938042694034528,0.0006363311317415804)    4    1    3    6
 (0.0999378860871786,-5.377642775528102e-16)    4    1    4    5
 (-0.0001569662494073804,-0.02451454837602015)    4    1    4    6
 (-0.1690839238348598,-0.001082641413642846)    4    2    3    5
 (2.62878237696403e-11,-0.02416082266909993)    4    2    3    6
 (-0.0001569662494053612,0.02451454837601999)    4    2    4    5
 (0.1729846015879826,2.315855840429037e-16)    4    2    4    6
 (0.164242009026043,-0.01352249539096489)    3    1    5    1
 (0.002740313244738781,0.03610913247241896)    3    1    5    2
 (0.002740313244737929,0.03610913247241903)    3    1    6    1
 (0.1660925683632983,-0.01153563113181753)    3    1    6    2
 (-0.001283399163767257,-0.0169113629439074)    3    2    5    1
 (0.1002997773831791,-0.006966122834134352)    3    2    5    2
 (0.1002997773831791,-0.006966122834134282)    3    2    6    1
 (-0.001034710518667762,-0.01641823876813864)    3    2    6    2
 (0.001420797577194456,0.0172567744523371)    4    1    5    1
 (-0.1008121848882911,0.007650612014410739)    4    1    5    2
 (-0.1008121848882911,0.007650612014410647)    4    1    6    1
 (0.001159047134341134,0.01668821662533006)    4    1    6    2
 (-0.1667366874844302,0.01265360635221754)    4    2    5    1
 (-0.002550902323594499,-0.03672845626474276)    4    2    5    2
 (-0.002550902323593576,-0.03672845626474285)    4    2    6    1
 (-0.1699847163267839,0.01071277936673167)    4    2    6    2
 (0.08186883155084332,1.558967913191971e-17)    3    3    1    1
 (-3.266944641485437e-06,0.0005102257696886349)    3    3    1    2
 (-3.26694464150105e-06,-0.0005102257696886043)    3    3    2    1
 (0.08489761510911892,2.429255443614122e-17)    3    3    2    2
 (-0.08135185245749088,-0.0005208944854055189)    3    4    1    2
 (-0.08135185245749088,0.0005208944854055209)    3    4    2    1
 (-0.08135185245749088,-0.0005208944854055155)    4    3    1    2
 (-0.08135185245749088,0.0005208944854055242)    4    3    2    1
 (0.08691694616081215,2.543776159204654e-17)    4    4    1    1
 (-3.212528253021887e-06,0.0005017204493249539)    4    4    1    2
 (-3.212528253018996e-06,-0.0005017204493249219)    4    4    2    1
 (0.09138587340343676,3.596935774277687e-17)    4    4    2    2
 (0.0810030498619688,1.439303724889066e-17)    3    3    3    3
 (0.08602156026990859,2.346861728931556e-17)    3    3    4    4
 (0.08148956550829239,5.855337406393891e-18)    3    4    3    4
 (0.08148956550829239,8.37325484062978e-19)    3    4    4    3
 (0.08148956550829239,-4.333458619918722e-18)    4    3    3    4
 (0.08148956550829239,-9.351470542249256e-18)    4    3    4    3
 (0.08602156026990777,2.405347339292478e-17)    4    4    3    3
 (0.09257586830486739,3.527193671219452e-17)    4    4    4    4
 (0.08186883155084448,1.461871193164151e-17)    3    3    5    5
 (-3.266944639946304e-06,-0.0005102257696886568)    3    3    5    6
 (-3.266944639946159e-06,0.0005102257696885953)    3    3    6    5
 (0.08489761510911721,2.359165917133616e-17)    3    3    6    6
 (-0.0813518524574907,0.0005208944854055201)    3    4    5    6
 (-0.0813518524574907,-0.0005208944854055195)    3    4    6    5
 (-0.0813518524574907,0.0005208944854055238)    4    3    5    6
 (-0.0813518524574907,-0.0005208944854055162)    4    3    6    5
 (0.08691694616081116,2.365080312218569e-17)    4    4    5    5
 (-3.212528254358347e-06,-0.0005017204493249973)    4    4    5    6
 (-3.212528254358203e-06,0.0005017204493249123)    4    4    6    5
 (0.09138587340343635,3.481898106677281e-17)    4    4    6    6
 (0.1642420090260405,0.01352249539096516)    3    5    1    5
 (0.002740313244738335,-0.03610913247241869)    3    5    1    6
 (0.002740313244739163,-0.03610913247241863)    3    5    2    5
 (0.1660925683632985,0.01153563113181744)    3    5    2    6
 (-0.001283399163765136,0.01691136294390705)    3    6    1    5
 (0.1002997773831785,0.00696612283413473)    3    6    1    6
 (0.1002997773831785,0.006966122834134805)    3    6    2    5
 (-0.001034710518671262,0.01641823876813858)    3    6    2    6
 (0.001420797577195399,-0.01725677445233694)    4    5    1    5
 (-0.1008121848882867,-0.007650612014411089)    4    5    1    6
 (-0.1008121848882867,-0.007650612014411178)    4    5    2    5
 (0.00115904713433924,-0.01668821662533027)    4    5    2    6
 (-0.1667366874844317,-0.01265360635221824)    4    6    1    5
 (-0.002550902323594302,0.03672845626474122)    4    6    1    6
 (-0.002550902323595223,0.03672845626474112)    4    6    2    5
 (-0.1699847163267823,-0.0107127793667306)    4    6    2    6
 (0.1666478562994304,-1.139135082558103e-16)    3    5    3    1
 (0.0001522078321438761,-0.02377139188740807)    3    5    3    2
 (-2.727191389384487e-11,0.02413573864282795)    3    5    4    1
 (-0.1690839238348598,-0.001082641413642846)    3    5    4    2
 (0.0001522078321444797,0.0237713918874079)    3    6    3    1
 (0.09886593690969787,1.734723475976807e-17)    3    6    3    2
 (-0.09938042694034528,0.0006363311317415804)    3    6    4    1
 (2.62878237696403e-11,-0.02416082266909993)    3    6    4    2
 (-2.72721567551315e-11,-0.02413573864282799)    4    5    3    1
 (-0.09938042694034577,-0.0006363311317414827)    4    5    3    2
 (0.0999378860871786,-5.377642775528102e-16)    4    5    4    1
 (-0.0001569662494053612,0.02451454837601999)    4    5    4    2
 (-0.1690839238348578,0.001082641413642832)    4    6    3    1
 (2.628662796692419e-11,0.02416082266910033)    4    6    3    2
 (-0.0001569662494073804,-0.02451454837602015)    4    6    4    1
 (0.1729846015879826,2.315855840429037e-16)    4    6    4    2
 (0.1666478562994303,-1.581489568932189e-16)    3    5    5    3
 (-2.72722770292925e-11,0.02413573864282798)    3    5    5    4
 (0.0001522078321434551,-0.02377139188740809)    3    5    6    3
 (-0.1690839238348598,-0.001082641413642938)    3    5    6    4
 (0.000152207832144711,0.02377139188740789)    3    6    5    3
 (-0.09938042694034534,0.0006363311317415058)    3    6    5    4
 (0.09886593690969787,-5.204170427930421e-17)    3    6    6    3
 (2.628804581424523e-11,-0.02416082266909993)    3    6    6    4
 (-2.727244818867547e-11,-0.024135738642828)    4    5    5    3
 (0.09993788608717857,-4.521845860712877e-16)    4    5    5    4
 (-0.09938042694034568,-0.000636331131741435)    4    5    6    3
 (-0.0001569662494055971,0.02451454837601999)    4    5    6    4
 (-0.1690839238348578,0.001082641413642886)    4    6    5    3
 (-0.0001569662494069178,-0.02451454837602015)    4    6    5    4
 (2.62870489264877e-11,0.02416082266910036)    4    6    6    3
 (0.1729846015879825,3.304648221735818e-16)    4    6    6    4
 (0.1634382081123193,-3.080941173479641e-17)    5    1    1    5
 (-0.0001874985302573841,-0.02928300351455956)    5    1    1    6
 (-0.0001874985302565595,-0.02928300351455957)    5    1    2    5
 (0.1651127274465616,-0.002114514475309956)    5    1    2    6
 (-0.0001874985302557394,0.0292830035145599)    5    2    1    5
 (0.1031554067832642,-6.740123505618219e-18)    5    2    1    6
 (0.1031554067832642,1.167053288499605e-16)    5    2    2    5
 (0.0001850582638653425,0.02890188939171812)    5    2    2    6
 (-0.0001874985302565906,0.02928300351455991)    6    1    1    5
 (0.1031554067832642,1.53441712461011e-16)    6    1    1    6
 (0.1031554067832642,2.840880742455143e-16)    6    1    2    5
 (0.000185058263864506,0.02890188939171812)    6    1    2    6
 (0.1651127274465623,0.002114514475309266)    6    2    1    5
 (0.000185058263863708,-0.02890188939171805)    6    2    1    6
 (0.0001850582638646071,-0.02890188939171803)    6    2    2    5
 (0.1682998493001494,-3.070099151754787e-16)    6    2    2    6
 (0.164242009026043,-0.01352249539096489)    5    1    3    1
 (-0.001283399163767257,-0.0169113629439074)    5    1    3    2
 (0.001420797577194456,0.0172567744523371)    5    1    4    1
 (-0.1667366874844302,0.01265360635221754)    5    1    4    2
 (0.002740313244738781,0.03610913247241896)    5    2    3    1
 (0.1002997773831791,-0.006966122834134352)    5    2    3    2
 (-0.1008121848882911,0.007650612014410739)    5    2    4    1
 (-0.002550902323594499,-0.03672845626474276)    5    2    4    2
 (0.002740313244737929,0.03610913247241903)    6    1    3    1
 (0.1002997773831791,-0.006966122834134282)    6    1    3    2
 (-0.1008121848882911,0.007650612014410647)    6    1    4    1
 (-0.002550902323593576,-0.03672845626474285)    6    1    4    2
 (0.1660925683632983,-0.01153563113181753)    6    2    3    1
 (-0.001034710518667762,-0.01641823876813864)    6    2    3    2
 (0.001159047134341134,0.01668821662533006)    6    2    4    1
 (-0.1699847163267839,0.01071277936673167)    6    2    4    2
 (0.1642420090260405,-0.01352249539096516)    5    1    5    3
 (0.001420797577195399,0.01725677445233694)    5    1    5    4
 (-0.001283399163765136,-0.01691136294390705)    5    1    6    3
 (-0.1667366874844317,0.01265360635221824)    5    1    6    4
 (0.002740313244739163,0.03610913247241863)    5    2    5    3
 (-0.1008121848882867,0.007650612014411178)    5    2    5    4
 (0.1002997773831785,-0.006966122834134805)    5    2    6    3
 (-0.002550902323595223,-0.03672845626474112)    5    2    6    4
 (0.002740313244738335,0.03610913247241869)    6    1    5    3
 (-0.1008121848882867,0.007650612014411089)    6    1    5    4
 (0.1002997773831785,-0.00696612283413473)    6    1    6    3
 (-0.002550902323594302,-0.03672845626474122)    6    1    6    4
 (0.1660925683632985,-0.01153563113181744)    6    2    5    3
 (0.00115904713433924,0.01668821662533027)    6    2    5    4
 (-0.001034710518671262,-0.01641823876813858)    6    2    6    3
 (-0.1699847163267823,0.0107127793667306)    6    2    6    4
 (0.1666478562994304,1.139135082558103e-16)    5    3    1    3
 (-2.727191389384487e-11,-0.02413573864282795)    5    3    1    4
 (0.0001522078321438761,0.02377139188740807)    5    3    2    3
 (-0.1690839238348598,0.001082641413642846)    5    3    2    4
 (-2.72721567551315e-11,0.02413573864282799)    5    4    1    3
 (0.0999378860871786,5.377642775528102e-16)    5    4    1    4
 (-0.09938042694034577,0.0006363311317414827)    5    4    2    3
 (-0.0001569662494053612,-0.02451454837601999)    5    4    2    4
 (0.0001522078321444797,-0.0237713918874079)    6    3    1    3
 (-0.09938042694034528,-0.0006363311317415804)    6    3    1    4
 (0.09886593690969787,-1.734723475976807e-17)    6    3    2    3
 (2.62878237696403e-11,0.02416082266909993)    6    3    2    4
 (-0.1690839238348578,-0.001082641413642832)    6    4    1    3
 (-0.0001569662494073804,0.02451454837602015)    6    4    1    4
 (2.628662796692419e-11,-0.02416082266910033)    6    4    2    3
 (0.1729846015879826,-2.315855840429037e-16)    6    4    2    4
 (0.1666478562994303,-1.581489568932189e-16)    5    3    3    5
 (0.000152207832144711,0.02377139188740789)    5    3    3    6
 (-2.727244818867547e-11,-0.024135738642828)    5    3    4    5
 (-0.1690839238348578,0.001082641413642886)    5    3    4    6
 (-2.72722770292925e-11,0.02413573864282798)    5    4    3    5
 (-0.09938042694034534,0.0006363311317415058)    5    4    3    6
 (0.09993788608717857,-4.521845860712877e-16)    5    4    4    5
 (-0.0001569662494069178,-0.02451454837602015)    5    4    4    6
 (0.0001522078321434551,-0.02377139188740809)    6    3    3    5
 (0.09886593690969787,-5.204170427930421e-17)    6    3    3    6
 (-0.09938042694034568,-0.000636331131741435)    6    3    4    5
 (2.62870489264877e-11,0.02416082266910036)    6    3    4    6
 (-0.1690839238348598,-0.001082641413642938)    6    4    3    5
 (2.628804581424523e-11,-0.02416082266909993)    6    4    3    6
 (-0.0001569662494055971,0.02451454837601999)    6    4    4    5
 (0.1729846015879825,3.304648221735818e-16)    6    4    4    6
 (0.1642420090260405,-0.01352249539096516)    5    3    5    1
 (0.002740313244739163,0.03610913247241863)    5    3    5    2
 (0.002740313244738335,0.03610913247241869)    5    3    6    1
 (0.1660925683632985,-0.01153563113181744)    5    3    6    2
 (0.001420797577195399,0.01725677445233694)    5    4    5    1
 (-0.1008121848882867,0.007650612014411178)    5    4    5    2
 (-0.1008121848882867,0.007650612014411089)    5    4    6    1
 (0.00115904713433924,0.01668821662533027)    5    4    6    2
 (-0.001283399163765136,-0.01691136294390705)    6    3    5    1
 (0.1002997773831785,-0.006966122834134805)    6    3    5    2
 (0.1002997773831785,-0.00696612283413473)    6    3    6    1
 (-0.001034710518671262,-0.01641823876813858)    6    3    6    2
 (-0.1667366874844317,0.01265360635221824)    6    4    5    1
 (-0.002550902323595223,-0.03672845626474112)    6    4    5    2
 (-0.002550902323594302,-0.03672845626474122)    6    4    6    1
 (-0.1699847163267823,0.0107127793667306)    6    4    6    2
 (0.08275896949354794,1.582192864048857e-17)    5    5    1    1
 (-3.372540321562127e-06,0.0005267174480819166)    5    5    1    2
 (-3.372540321562127e-06,-0.0005267174480818854)    5    5    2    1
 (0.08576358800784431,2.448047910093197e-17)    5    5    2    2
 (-3.372540320442652e-06,-0.0005267174480819284)    5    6    1    1
 (0.08122941246824399,3.449118161219511e-18)    5    6    1    2
 (0.08119933306810895,-0.001039878445975886)    5    6    2    1
 (-3.088701873465068e-06,-0.0004823815506184442)    5    6    2    2
 (-3.372540320442652e-06,0.0005267174480818653)    6    5    1    1
 (0.08119933306810895,0.001039878445975882)    6    5    1    2
 (0.08122941246824399,-8.810272028707728e-18)    6    5    2    1
 (-3.088701873465068e-06,0.0004823815506183608)    6    5    2    2
 (0.08576358800784224,2.496439728497326e-17)    6    6    1    1
 (-3.088701874695565e-06,0.0004823815506184147)    6    6    1    2
 (-3.088701874695565e-06,-0.0004823815506183836)    6    6    2    1
 (0.09023201042062069,3.551211942367079e-17)    6    6    2    2
 (0.08186883155084448,1.461871193164151e-17)    5    5    3    3
 (0.08691694616081116,2.365080312218569e-17)    5    5    4    4
 (-3.266944639946304e-06,-0.0005102257696886568)    5    6    3    3
 (-0.0813518524574907,0.0005208944854055201)    5    6    3    4
 (-0.0813518524574907,0.0005208944854055238)    5    6    4    3
 (-3.212528254358347e-06,-0.0005017204493249973)    5    6    4    4
 (-3.266944639946159e-06,0.0005102257696885953)    6    5    3    3
 (-0.0813518524574907,-0.0005208944854055195)    6    5    3    4
 (-0.0813518524574907,-0.0005208944854055162)    6    5    4    3
 (-3.212528254358203e-06,0.0005017204493249123)    6    5    4    4
 (0.08489761510911721,2.359165917133616e-17)    6    6    3    3
 (0.09138587340343635,3.481898106677281e-17)    6    6    4    4
 (0.08275896949354794,1.524515927555587e-17)    5    5    5    5
 (-3.372540321557501e-06,-0.0005267174480818836)    5    5    5    6
 (-3.372540321562127e-06,0.0005267174480819141)    5    5    6    5
 (0.08576358800784434,2.409433106979743e-17)    5    5    6    6
 (-3.372540319961555e-06,-0.000526717448081931)    5    6    5    5
 (0.08119933306810895,-0.001039878445975879)    5    6    5    6
 (0.081229412468244,-4.257752281531616e-18)    5    6    6    5
 (-3.08870187397392e-06,-0.0004823815506184403)    5    6    6    6
 (-3.372540319961555e-06,0.0005267174480818688)    6    5    5    5
 (0.081229412468244,-1.373322751814972e-18)    6    5    5    6
 (0.08119933306810896,0.001039878445975873)    6    5    6    5
 (-3.08870187397392e-06,0.0004823815506183573)    6    5    6    6
 (0.08576358800784224,2.446567077439161e-17)    6    6    5    5
 (-3.088701874686313e-06,-0.0004823815506183811)    6    6    5    6
 (-3.088701874695565e-06,0.0004823815506184125)    6    6    6    5
 (0.09023201042062065,3.511185144015109e-17)    6    6    6    6
 (-0.2360707507248655,-8.673617379884035e-19)    1    1  0  0
 (-1.864895648642984e-05,-0.002912526156224909)    2    1  0  0
 (-0.1549535810663616,-2.602085213965211e-18)    2    2  0  0
 (-0.2430063109624478,0)    3    3  0  0
 (1.006486990915968e-10,2.749487926309689e-17)    4    3  0  0
 (-0.1450417456795436,-6.162975822039155e-33)    4    4  0  0
 (-0.2360707507248656,2.602085213965211e-18)    5    5  0  0
 (-1.864895648628791e-05,0.002912526156224871)    6    5  0  0
 (-0.1549535810663616,2.168404344971009e-18)    6    6  0  0
 (-0.8265834074960368,0)  0  0  0  0
 (-0.1541407804721038,0)    1    0    0    0
 (0.07464364220305705,0)    2    0    0    0
 (-0.1678262659847044,0)    3    0    0    0
 (0.09330630504785932,0)    4    0    0    0
 (-0.1541407804721037,0)    5    0    0    0
 (0.07464364220305721,0)    6    0    0    0
