#INFO: **** input file is /home/max/git/pyscf/pyscf/embcc/test/00-simple_cisd.py ****
#!/usr/bin/env python
#
# Author: Qiming Sun <osirpt.sun@gmail.com>
#

'''
A simple example to run CISD calculation.
'''
import numpy as np

import pyscf
import pyscf.scf
import pyscf.ci
import pyscf.cc

mol = pyscf.M(
    atom = 'H 0 0 0; F 0 0 1.2',
    basis = 'ccpvdz',
    verbose=4)

mf = pyscf.scf.RHF(mol)
mf.run()

#cc = pyscf.cc.CCSD(mf)
#cc.run()
#
#eris = cc.ao2mo()
#eris_ovvo = eris.ovvo
#eris_ovvo2 = np.moveaxis(eris_ovvo, [0,1,2,3], [3,2,1,0])
#assert np.allclose(eris_ovvo, eris_ovvo2)
#
#T2 = cc.t2
#T2t = np.moveaxis(T2, [0,1,2,3], [1,0,3,2])
#assert np.allclose(T2, T2t)
#
#1/0

cc = pyscf.ci.CISD(mf)
cc.run()
print('RCISD correlation energy', cc.e_corr)

C0, C1 ,C2 = cc.cisdvec_to_amplitudes(cc.ci)

def get_ci_energy(C0, C1, C2):

    # Intermediate normalization <CI|HF> = 1
    renorm = 1/C0
    C1 *= renorm
    C2 *= renorm

    a = cc.get_frozen_mask()
    o = cc.mo_occ[a] > 0
    v = cc.mo_occ[a] == 0
    #S = mf.get_ovlp()
    #C = cc.mo_coeff[:,a]

    eris = cc.ao2mo()
    F = eris.fock[o][:,v]
    e1 = 2*np.sum(F * C1)
    # Brillouin's theorem
    assert np.isclose(e1, 0)

    e2 = 2*np.einsum('ijab,iabj', C2, eris.ovvo, optimize=True)
    e2 -=  np.einsum('ijab,jabi', C2, eris.ovvo, optimize=True)

    e_ccsd = e1+e2
    return e_ccsd

e_cisd = get_ci_energy(C0, C1, C2)
print("%.10f, error=%.2e" % (e_cisd, e_cisd - cc.e_corr))

# --- FCI
import pyscf.fci

fci = pyscf.fci.FCI(mol, mf.mo_coeff)
e_fci, civec = fci.kernel()
e_fci_corr = e_fci - mf.e_tot

print(np.allclose(fci.mo_coeff, mf.mo_coeff))
print(np.allclose(fci.mo_occ, mf.mo_occ))
print("FCI: %f" % e_fci_corr)

norb = len(mf.mo_energy)
nelec = mol.nelectron
cisdvec = pyscf.ci.cisd.from_fcivec(civec, norb, nelec)
C0, C1 ,C2 = cc.cisdvec_to_amplitudes(cisdvec)

e_cisd = get_ci_energy(C0, C1, C2)
print("%.10f, error=%.2e" % (e_cisd, e_cisd - e_fci_corr))



#INFO: ******************** input file end ********************


System: uname_result(system='Linux', node='zombie', release='4.4.0-174-generic', version='#204-Ubuntu SMP Wed Jan 29 06:41:01 UTC 2020', machine='x86_64', processor='x86_64')  Threads 8
Python 3.5.2 (default, Apr 16 2020, 17:47:17) 
[GCC 5.4.0 20160609]
numpy 1.15.4  scipy 1.1.0
Date: Sat May 30 13:33:24 2020
PySCF version 1.7.2
PySCF path  /home/max/git/pyscf/pyscf
GIT ORIG_HEAD cb0486ef192e5588945b2d08b61c3a8f7c1e5595
GIT HEAD      ref: refs/heads/master
GIT master branch  954037719c0503d24475009431087f39efa2fb90

[ENV] PYSCFHOME /home/max/git/pyscf
[CONFIG] conf_file None
[INPUT] verbose = 4
[INPUT] num. atoms = 2
[INPUT] num. electrons = 10
[INPUT] charge = 0
[INPUT] spin (= nelec alpha-beta = 2S) = 0
[INPUT] symmetry False subgroup None
[INPUT] Mole.unit = angstrom
[INPUT]  1 H      0.000000000000   0.000000000000   0.000000000000 AA    0.000000000000   0.000000000000   0.000000000000 Bohr
[INPUT]  2 F      0.000000000000   0.000000000000   1.200000000000 AA    0.000000000000   0.000000000000   2.267671349478 Bohr

nuclear repulsion = 3.9688290819
number of shells = 8
number of NR pGTOs = 33
number of NR cGTOs = 19
basis = ccpvdz
ecp = {}
CPU time:         0.53


******** <class 'pyscf.scf.hf.RHF'> ********
method = RHF
initial guess = minao
damping factor = 0
level_shift factor = 0
DIIS = <class 'pyscf.scf.diis.CDIIS'>
diis_start_cycle = 1
diis_space = 8
SCF conv_tol = 1e-09
SCF conv_tol_grad = None
SCF max_cycles = 50
direct_scf = True
direct_scf_tol = 1e-13
chkfile to save SCF result = /home/max/git/pyscf/pyscf/embcc/test/tmpxgi_fujc
max_memory 10000 MB (current use 70 MB)
Set gradient conv threshold to 3.16228e-05
init E= -99.576345900037
  HOMO = -0.63251702051079  LUMO = 0.000947095566109584
cycle= 1 E= -99.9027162691563  delta_E= -0.326  |g|= 0.501  |ddm|= 0.81
  HOMO = -0.467546870529024  LUMO = 0.0910393364087432
cycle= 2 E= -99.9416141146055  delta_E= -0.0389  |g|= 0.346  |ddm|= 0.458
  HOMO = -0.602619157207895  LUMO = 0.0901693163159419
cycle= 3 E= -99.9587185964984  delta_E= -0.0171  |g|= 0.0395  |ddm|= 0.176
  HOMO = -0.600908551717369  LUMO = 0.104630886209813
cycle= 4 E= -99.9594321762835  delta_E= -0.000714  |g|= 0.0126  |ddm|= 0.0359
  HOMO = -0.606382215551933  LUMO = 0.107165704881489
cycle= 5 E= -99.9595247209699  delta_E= -9.25e-05  |g|= 0.0017  |ddm|= 0.0185
  HOMO = -0.606960882757398  LUMO = 0.106749183375187
cycle= 6 E= -99.9595260084909  delta_E= -1.29e-06  |g|= 0.000252  |ddm|= 0.00238
  HOMO = -0.607090544825741  LUMO = 0.106806920950672
cycle= 7 E= -99.9595260399493  delta_E= -3.15e-08  |g|= 1.68e-05  |ddm|= 0.000411
  HOMO = -0.607087175362029  LUMO = 0.106801335533441
cycle= 8 E= -99.9595260400139  delta_E= -6.46e-11  |g|= 2.58e-06  |ddm|= 1.28e-05
  HOMO = -0.607088035498103  LUMO = 0.106801988624739
Extra cycle  E= -99.9595260400154  delta_E= -1.45e-12  |g|= 7.42e-07  |ddm|= 1.96e-06
converged SCF energy = -99.9595260400154

******** <class 'pyscf.ci.cisd.RCISD'> ********
CISD nocc = 5, nmo = 19
max_cycle = 50
direct = 0
conv_tol = 1e-09
max_cycle = 50
max_space = 12
lindep = 0
nroots = 1
max_memory 10000 MB (current use 75 MB)
Init t2, MP2 energy = -0.215395522934634
RCISD converged
E(RCISD) = -100.171987745144  E_corr = -0.2124617051285567
